
Running Job 1 of 1 mol.qin
qchem mol.qin_6334.0 /tmp/qchem6334/ 0
/global/common/cori/software/qchem/5.2/exe/qcprog.exe_s mol.qin_6334.0 /tmp/qchem6334/
                  Welcome to Q-Chem
     A Quantum Leap Into The Future Of Chemistry


 Q-Chem 5.2, Q-Chem, Inc., Pleasanton, CA (2019)

 License issued to: National Energy Research Scientific Computing Center

 Yihan Shao,  Zhengting Gan,  E. Epifanovsky,  A. T. B. Gilbert,  M. Wormit,  
 J. Kussmann,  A. W. Lange,  A. Behn,  Jia Deng,  Xintian Feng,  D. Ghosh,  
 M. Goldey,  P. R. Horn,  L. D. Jacobson,  I. Kaliman,  T. Kus,  A. Landau,  
 Jie Liu,  E. I. Proynov,  R. M. Richard,  R. P. Steele,  E. J. Sundstrom,  
 H. L. Woodcock III,  P. M. Zimmerman,  D. Zuev,  B. Albrecht,  E. Alguire,  
 S. A. Baeppler,  D. Barton,  Z. Benda,  Y. A. Bernard,  E. J. Berquist,  
 K. B. Bravaya,  H. Burton,  D. Casanova,  Chun-Min Chang,  Yunqing Chen,  
 A. Chien,  K. D. Closser,  M. P. Coons,  S. Coriani,  S. Dasgupta,  
 A. L. Dempwolff,  M. Diedenhofen,  Hainam Do,  R. G. Edgar,  Po-Tung Fang,  
 S. Faraji,  S. Fatehi,  Qingguo Feng,  K. D. Fenk,  J. Fosso-Tande,  
 J. Gayvert,  Qinghui Ge,  A. Ghysels,  G. Gidofalvi,  J. Gomes,  
 J. Gonthier,  A. Gunina,  D. Hait,  M. W. D. Hanson-Heine,  
 P. H. P. Harbach,  A. W. Hauser,  M. F. Herbst,  J. E. Herr,  
 E. G. Hohenstein,  Z. C. Holden,  Kerwin Hui,  B. C. Huynh,  T.-C. Jagau,  
 Hyunjun Ji,  B. Kaduk,  K. Khistyaev,  Jaehoon Kim,  P. Klunzinger,  K. Koh,  
 D. Kosenkov,  L. Koulias,  T. Kowalczyk,  C. M. Krauter,  A. Kunitsa,  
 Ka Un Lao,  A. Laurent,  K. V. Lawler,  Joonho Lee,  D. Lefrancois,  
 S. Lehtola,  D. S. Levine,  Yi-Pei Li,  You-Sheng Lin,  Fenglai Liu,  
 E. Livshits,  A. Luenser,  P. Manohar,  E. Mansoor,  S. F. Manzer,  
 Shan-Ping Mao,  Yuezhi Mao,  N. Mardirossian,  A. V. Marenich,  
 T. Markovich,  L. A. Martinez-Martinez,  S. A. Maurer,  N. J. Mayhall,  
 S. C. McKenzie,  J.-M. Mewes,  P. Morgante,  A. F. Morrison,  
 J. W. Mullinax,  K. Nanda,  T. S. Nguyen-Beck,  R. Olivares-Amaya,  
 J. A. Parkhill,  Zheng Pei,  T. M. Perrine,  F. Plasser,  P. Pokhilko,  
 S. Prager,  A. Prociuk,  E. Ramos,  D. R. Rehn,  F. Rob,  M. Scheurer,  
 M. Schneider,  N. Sergueev,  S. M. Sharada,  S. Sharma,  D. W. Small,  
 T. Stauch,  T. Stein,  Yu-Chuan Su,  A. J. W. Thom,  A. Tkatchenko,  
 T. Tsuchimochi,  N. M. Tubman,  L. Vogt,  M. L. Vidal,  O. Vydrov,  
 M. A. Watson,  J. Wenzel,  M. de Wergifosse,  T. A. Wesolowski,  A. White,  
 J. Witte,  A. Yamada,  Jun Yang,  K. Yao,  S. Yeganeh,  S. R. Yost,  
 Zhi-Qiang You,  A. Zech,  Igor Ying Zhang,  Xing Zhang,  Yan Zhao,  
 Ying Zhu,  B. R. Brooks,  G. K. L. Chan,  C. J. Cramer,  M. S. Gordon,  
 W. J. Hehre,  A. Klamt,  M. W. Schmidt,  C. D. Sherrill,  D. G. Truhlar,  
 A. Aspuru-Guzik,  R. Baer,  A. T. Bell,  N. A. Besley,  Jeng-Da Chai,  
 A. E. DePrince, III,  R. A. DiStasio Jr.,  A. Dreuw,  B. D. Dunietz,  
 T. R. Furlani,  Chao-Ping Hsu,  Yousung Jung,  Jing Kong,  D. S. Lambrecht,  
 WanZhen Liang,  C. Ochsenfeld,  V. A. Rassolov,  L. V. Slipchenko,  
 J. E. Subotnik,  T. Van Voorhis,  J. M. Herbert,  A. I. Krylov,  
 P. M. W. Gill,  M. Head-Gordon

 Contributors to earlier versions of Q-Chem not listed above: 
 R. D. Adamson,  B. Austin,  J. Baker,  G. J. O. Beran,  K. Brandhorst,  
 S. T. Brown,  E. F. C. Byrd,  A. K. Chakraborty,  C.-L. Cheng,  
 Siu Hung Chien,  D. M. Chipman,  D. L. Crittenden,  H. Dachsel,  
 R. J. Doerksen,  A. D. Dutoi,  L. Fusti-Molnar,  W. A. Goddard III,  
 A. Golubeva-Zadorozhnaya,  S. R. Gwaltney,  G. Hawkins,  A. Heyden,  
 S. Hirata,  G. Kedziora,  F. J. Keil,  C. Kelley,  Jihan Kim,  R. A. King,  
 R. Z. Khaliullin,  P. P. Korambath,  W. Kurlancheek,  A. M. Lee,  M. S. Lee,  
 S. V. Levchenko,  Ching Yeh Lin,  D. Liotard,  R. C. Lochan,  I. Lotan,  
 P. E. Maslen,  N. Nair,  D. P. O'Neill,  D. Neuhauser,  E. Neuscamman,  
 C. M. Oana,  R. Olson,  B. Peters,  R. Peverati,  P. A. Pieniazek,  
 Y. M. Rhee,  J. Ritchie,  M. A. Rohrdanz,  E. Rosta,  N. J. Russ,  
 H. F. Schaefer III,  N. E. Schultz,  N. Shenvi,  A. C. Simmonett,  A. Sodt,  
 D. Stuck,  K. S. Thanthiriwatte,  V. Vanovschi,  Tao Wang,  A. Warshel,  
 C. F. Williams,  Q. Wu,  X. Xu,  W. Zhang

 Please cite Q-Chem as follows:
 Y. Shao et al., Mol. Phys. 113, 184-215 (2015)
 DOI: 10.1080/00268976.2014.952696

 Q-Chem 5.2.0 for Intel X86 EM64T Linux

 Parts of Q-Chem use Armadillo 8.300.2 (Tropical Shenanigans).
 http://arma.sourceforge.net/

 Q-Chem begins on Mon Sep 16 19:32:47 2019  

Host: cori02
0

     Scratch files written to /tmp/qchem6334//
 May1019 |scratch|qcdevops|jenkins|workspace|build_RNUM -1
Processing $rem in /global/common/cori/software/qchem/5.2/config/preferences:
	 MEM_TOTAL  96000 
 Now reading second FSM geometry
NAlpha2: 50
NElect   50
Mult     1
Symmetry turned off for PCM/SM12/SMD calculation

Checking the input file for inconsistencies... 	...done.

--------------------------------------------------------------
User input:
--------------------------------------------------------------
$molecule
-1 1
O     -0.6334776501      0.0777732237      1.1783842474
C     -0.6606720018     -0.2605260574     -0.0465794763
O      0.4450578721     -0.5106988810     -0.7282300874
O     -1.7657361304     -0.3923415860     -0.6662039280
Li     -2.4950478213      0.1381002622      0.9705250983
C      1.7695161019     -0.1519175981     -0.0820796191
C      2.1476883625      1.2769764739     -0.1746206443
H      1.6752586368     -0.5448954558      0.9337631560
H      2.4313688991     -0.8119304580     -0.6513035901
H      3.0846715122      1.4294778816     -0.7234822145
H      2.2043143032      1.7742659941      0.8010182074
****
O     -1.1001132060      0.9144522394      0.4986492806
C     -0.1889365158      0.1568870590      0.0853726293
O     -0.4341732277     -0.9118306936     -0.6432513491
O      1.0830344995      0.3727433204      0.3482606009
Li      1.3670969611     -1.1367146003     -0.6171732261
C      7.8221236783      8.4297911461      8.4017268032
C      9.1357371110      8.5281016870      8.5561163105
H      7.1317037807      8.8454577177      9.1306924642
H      7.3866951992      7.9298822593      7.5407593451
H      9.5711768442      9.0278548504      9.4171695657
H      9.8261424984      8.1121416579      7.8273075721
$end

$rem
job_type = fsm
basis = def2-tzvppd
max_scf_cycles = 200
gen_scfman = true
xc_grid = 3
scf_algorithm = diis_gdm
resp_charges = true
symmetry = false
sym_ignore = true
method = wb97xv
fsm_mode = 2
fsm_nnode = 15
fsm_ngrad = 4
fsm_opt_mode = 2
solvent_method = smd
ideriv = 1
thresh = 14
$end

$smx
solvent other
$end
--------------------------------------------------------------
 ----------------------------------------------------------------
             Standard Nuclear Orientation (Angstroms)
    I     Atom           X                Y                Z
 ----------------------------------------------------------------
    1      O      -0.6334776501     0.0777732237     1.1783842474
    2      C      -0.6606720018    -0.2605260574    -0.0465794763
    3      O       0.4450578721    -0.5106988810    -0.7282300874
    4      O      -1.7657361304    -0.3923415860    -0.6662039280
    5      Li     -2.4950478213     0.1381002622     0.9705250983
    6      C       1.7695161019    -0.1519175981    -0.0820796191
    7      C       2.1476883625     1.2769764739    -0.1746206443
    8      H       1.6752586368    -0.5448954558     0.9337631560
    9      H       2.4313688991    -0.8119304580    -0.6513035901
   10      H       3.0846715122     1.4294778816    -0.7234822145
   11      H       2.2043143032     1.7742659941     0.8010182074
 ----------------------------------------------------------------
 Nuclear Repulsion Energy =         253.57975463 hartrees
 There are       25 alpha and       25 beta electrons
 Requested basis set is def2-TZVPPD
 There are 119 shells and 321 basis functions

 Total QAlloc Memory Limit  96000 MB
 Mega-Array Size       188 MB
 MEM_STATIC part       192 MB
 beginning FSman 

*******************************************
*******************************************
******** Starting FSM Calculation *********
*******************************************
*******************************************
-FSM parameters:
 Maximum displacement of each coordinate during optimization (Angstrom)      0.05
 Maximum optimization steps for each new node                                4
 The scaling factor for optimization (hartrees/Angstrom^2)                   1.75
 The number of LST interpolations used for reparameterization                100
-Aligning product structure to maximum coincidence with the reactant structure
 Total R --> P Distance 19.505171
 New node interpolation distace (Angstroms): 1.30
-Performing force calculation on reactant structure in state:0
 ----------------------------------------------------------------
             Standard Nuclear Orientation (Angstroms)
    I     Atom           X                Y                Z
 ----------------------------------------------------------------
    1      O      -0.6334776501     0.0777732237     1.1783842474
    2      C      -0.6606720018    -0.2605260574    -0.0465794763
    3      O       0.4450578721    -0.5106988810    -0.7282300874
    4      O      -1.7657361304    -0.3923415860    -0.6662039280
    5      Li     -2.4950478213     0.1381002622     0.9705250983
    6      C       1.7695161019    -0.1519175981    -0.0820796191
    7      C       2.1476883625     1.2769764739    -0.1746206443
    8      H       1.6752586368    -0.5448954558     0.9337631560
    9      H       2.4313688991    -0.8119304580    -0.6513035901
   10      H       3.0846715122     1.4294778816    -0.7234822145
   11      H       2.2043143032     1.7742659941     0.8010182074
 ----------------------------------------------------------------
 Nuclear Repulsion Energy =         253.57975463 hartrees
 There are       25 alpha and       25 beta electrons
 
 Citation of the SMD model:
 Marenich, A.V.; Cramer, C.J.; Truhlar, D.G.
 J. Phys. Chem. B 2009, 113, 6378-6396.
 iSolventCode=           0
 Solvent: other                                                           
 
 vradii
            1           2           3           4           5           6
    1   2.2940000   1.8500000   2.2940000   2.2940000   2.1476001   1.8500000
            7           8           9          10          11
    1   1.8500000   1.2000000   1.2000000   1.2000000   1.2000000
 Changing PCM_VDW_RADII to SMD_RADIUS
 Discretize the solute cavity surface with Lebedev spheres
	Using 110 Lebedev grid points for each H atom
	Using 194 Lebedev grid points for other atoms
	Atomic van der Waals radii will be scaled by 1.20
 Remove points where switching function is < 1.0e-08
 Keep 818 surface tesserae and discard 980 interior tesserae
 Molecular Surface Area = 157.659 Angst**2

                       Distance Matrix (Angstroms)
             O (  1)   C (  2)   O (  3)   O (  4)   Li(  5)   C (  6)
   C (  2)  1.271111
   O (  3)  2.268197  1.322827
   O (  4)  2.214841  1.273765  2.214829
   Li(  5)  1.874110  2.135027  3.457012  1.868728
   C (  6)  2.723216  2.432873  1.516715  3.591241  4.402112
   C (  7)  3.317167  3.204247  2.530063  4.282893  4.915628  1.480985
   H (  8)  2.403709  2.549217  2.068039  3.797843  4.226025  1.093276
   H (  9)  3.678670  3.198508  2.010495  4.218053  5.272805  1.094387
   H ( 10)  4.389628  4.164362  3.275953  5.181579  5.972486  2.154494
   H ( 11)  3.327695  3.614823  3.264146  4.754811  4.978933  2.163121
             C (  7)   H (  8)   H (  9)   H ( 10)
   H (  8)  2.184244
   H (  9)  2.161304  1.776358
   H ( 10)  1.096560  2.937866  2.335792
   H ( 11)  1.096528  2.382442  2.974761  1.793881
 
 Requested basis set is def2-TZVPPD
 There are 119 shells and 321 basis functions
 A cutoff of  1.0D-14 yielded   6771 shell pairs
 There are     50083 function pairs (     63821 Cartesian)
 Smallest overlap matrix eigenvalue = 1.16E-05

 Scale SEOQF with 1.000000e-01/1.000000e-01/1.000000e-01

 Standard Electronic Orientation quadrupole field applied
 Nucleus-field energy     =     0.0000000031 hartrees
 Guess from superposition of atomic densities
 Warning:  Energy on first SCF cycle will be non-variational
 SAD guess density has 48.090450 electrons

 -----------------------------------------------------------------------
  General SCF calculation program by
  Eric Jon Sundstrom, Paul Horn, Yuezhi Mao, Dmitri Zuev, Alec White,
  David Stuck, Shaama M.S., Shane Yost, Joonho Lee, David Small,
  Daniel Levine, Susi Lehtola, Hugh Burton, Evgeny Epifanovsky
 -----------------------------------------------------------------------
 Exchange:     0.1670 Hartree-Fock + 1.0000 wB97X-V + LR-HF
 Correlation:  1.0000 wB97X-V
 Using SG-3 standard quadrature grid
 Nonlocal Correlation:  VV10 with C = 0.0100 and b = 6.00 and scale = 1.00000
 Grid used for NLC:  SG-1 standard quadrature
 
 Citation of the SMD model:
 Marenich, A.V.; Cramer, C.J.; Truhlar, D.G.
 J. Phys. Chem. B 2009, 113, 6378-6396.
 iSolventCode=           0
 Solvent: other                                                           
 
 vradii
            1           2           3           4           5           6
    1   2.2940000   1.8500000   2.2940000   2.2940000   2.1476001   1.8500000
            7           8           9          10          11
    1   1.8500000   1.2000000   1.2000000   1.2000000   1.2000000
 using 32 threads for integral computing
 -------------------------------------------------------
 OpenMP Integral computing Module                
 Release: version 1.0, May 2013, Q-Chem Inc. Pittsburgh 
 -------------------------------------------------------
 using 32 threads for integral computing
 -------------------------------------------------------
 OpenMP Integral computing Module                
 Release: version 1.0, May 2013, Q-Chem Inc. Pittsburgh 
 -------------------------------------------------------
 -------------------------------------------------------
 OpenMP BLAS3 based DFT computing Module                
 Release: version 1.0, May 2013, Q-Chem Inc. Pittsburgh 
 -------------------------------------------------------
 -------------------------------------------------------
 OpenMP BLAS3 based DFT computing Module                
 Release: version 1.0, May 2013, Q-Chem Inc. Pittsburgh 
 -------------------------------------------------------
 -------------------------------------------------------
 OpenMP BLAS3 based DFT computing Module                
 Release: version 1.0, May 2013, Q-Chem Inc. Pittsburgh 
 -------------------------------------------------------
 A restricted SCF calculation will be
 performed using DIIS, GDM
 SCF converges when RMS gradient is below 1.0e-08
 ---------------------------------------
  Cycle       Energy         DIIS error
 ---------------------------------------
    1    -348.9497529731      2.55e-02  
    2    -349.1332810591      1.05e-02  
    3    -349.6738098398      7.23e-03  Done DIIS. Switching to GDM
 ---------------------------------------
  Cycle       Energy        RMS Gradient
 ---------------------------------------
    1    -349.6738098398      2.22e-01   Descent step
    2    -350.0653956496      2.93e-02   Normal BFGS step
    3    -350.0960753533      1.26e-02   Normal BFGS step
    4    -350.0972568758      4.47e-03   Normal BFGS step
    5    -350.0976742608      1.66e-03   Normal BFGS step
    6    -350.0977040491      1.22e-03   Normal BFGS step
    7    -350.0977237900      2.64e-04   Normal BFGS step
    8    -350.0977248704      1.42e-04   Normal BFGS step
    9    -350.0977252891      6.04e-05   Normal BFGS step
   10    -350.0977253222      2.19e-05   Normal BFGS step
   11    -350.0977253277      1.98e-05   Normal BFGS step
   12    -350.0977253306      2.70e-06   Normal BFGS step
   13    -350.0977253307      1.29e-06   Normal BFGS step
   14    -350.0977253307      2.69e-07   Normal BFGS step
   15    -350.0977253307      8.90e-08   Normal BFGS step
   16    -350.0977253307      2.46e-08   Normal BFGS step
   17    -350.0977253307      6.46e-09  Convergence criterion met
 ---------------------------------------
 SCF time:   CPU 2198.19s  wall 123.00s 
(3)  G-ENP(liq) elect-nuc-pol free energy of system     -350.097725331 a.u.
(4)  G-CDS(liq) cavity-dispersion-solvent structure 
     free energy                                               -1.6795 kcal/mol
(6)  G-S(liq) free energy of system                     -350.100401718 a.u.
 SCF   energy in the final basis set =     -350.0977253307
 Total energy in the final basis set =     -350.1004017180
 
 --------------------------------------------------------------
 
                    Orbital Energies (a.u.)
 --------------------------------------------------------------
 
 Alpha MOs
 -- Occupied --
-19.1935 -19.1472 -19.1438 -10.3822 -10.2711 -10.1648  -2.0715  -1.1989
 -1.0954  -1.0567  -0.8242  -0.6909  -0.6054  -0.5649  -0.5548  -0.5398
 -0.4973  -0.4603  -0.4278  -0.4008  -0.3790  -0.3625  -0.3523  -0.3435
 -0.2259
 -- Virtual --
  0.0387   0.0550   0.0559   0.0649   0.1005   0.1129   0.1203   0.1269
  0.1430   0.1479   0.1515   0.1531   0.1619   0.1707   0.1728   0.1799
  0.1903   0.1967   0.2096   0.2215   0.2264   0.2387   0.2519   0.2577
  0.2702   0.2780   0.2887   0.3012   0.3097   0.3198   0.3280   0.3343
  0.3472   0.3553   0.3649   0.3661   0.3744   0.3860   0.3959   0.4045
  0.4180   0.4191   0.4275   0.4309   0.4346   0.4411   0.4431   0.4516
  0.4627   0.4740   0.4763   0.4896   0.4940   0.4973   0.4999   0.5187
  0.5275   0.5356   0.5402   0.5439   0.5572   0.5671   0.5789   0.5850
  0.5926   0.6044   0.6112   0.6120   0.6259   0.6380   0.6499   0.6646
  0.6814   0.6889   0.7106   0.7143   0.7168   0.7307   0.7397   0.7490
  0.7673   0.7744   0.7887   0.8038   0.8133   0.8245   0.8387   0.8516
  0.8577   0.8645   0.8716   0.8859   0.9031   0.9156   0.9263   0.9429
  0.9827   0.9865   1.0140   1.0291   1.0411   1.0614   1.0621   1.0911
  1.0978   1.1146   1.1305   1.1681   1.1865   1.2241   1.2323   1.2534
  1.2551   1.2782   1.2923   1.3026   1.3136   1.3299   1.3484   1.3597
  1.3784   1.3842   1.4267   1.4625   1.4821   1.4956   1.5198   1.5389
  1.5669   1.5970   1.6102   1.6720   1.6977   1.7163   1.7516   1.7762
  1.8084   1.8439   1.8906   1.9310   1.9329   1.9540   1.9648   1.9746
  1.9942   2.0199   2.0545   2.0804   2.1279   2.1537   2.1953   2.2394
  2.2474   2.3095   2.3482   2.3792   2.4107   2.4623   2.4888   2.5085
  2.5443   2.5634   2.6432   2.6913   2.7474   2.8105   2.8653   2.8794
  2.8900   2.9281   2.9614   2.9823   2.9910   3.0281   3.0448   3.0818
  3.0955   3.1320   3.1724   3.2415   3.2524   3.2722   3.2927   3.3203
  3.3285   3.3417   3.3885   3.3964   3.4096   3.4380   3.4485   3.4591
  3.4728   3.4870   3.5319   3.5671   3.5786   3.6147   3.6209   3.6339
  3.6528   3.6567   3.6876   3.7110   3.7248   3.7443   3.7644   3.8027
  3.8188   3.8833   3.8987   3.9209   3.9697   3.9747   4.0747   4.1290
  4.1920   4.2135   4.2486   4.2768   4.2882   4.3328   4.3494   4.4170
  4.4626   4.4930   4.5227   4.5335   4.6957   4.7057   4.7664   4.8038
  4.8577   4.9180   4.9602   4.9962   5.0806   5.0973   5.1122   5.1791
  5.2741   5.2983   5.3062   5.3191   5.3426   5.3499   5.3623   5.4107
  5.4251   5.4906   5.5575   5.6133   5.6260   5.6562   5.6885   5.7112
  5.7599   5.7693   5.7837   5.8989   5.9527   5.9645   6.0721   6.0823
  6.1056   6.2316   6.2899   6.3012   6.3415   6.3639   6.4788   6.5434
  6.6353   6.6690   6.7313   6.7510   6.8095   6.8671   6.9086   6.9757
  7.0051   7.1135   7.1777   7.3056   7.4074   7.4552   7.5152   7.6579
  7.7461  14.8596  23.2665  23.5397  23.9041  44.2210  44.3649  44.5892
 --------------------------------------------------------------
 
          Ground-State Mulliken Net Atomic Charges

     Atom                 Charge (a.u.)
  ----------------------------------------
      1 O                    -0.792243
      2 C                     0.512657
      3 O                    -0.254741
      4 O                    -0.811389
      5 Li                    0.857707
      6 C                     0.413888
      7 C                    -1.166878
      8 H                     0.082648
      9 H                     0.045143
     10 H                     0.082563
     11 H                     0.030645
  ----------------------------------------
  Sum of atomic charges =    -1.000000

  Building new vdw surfaces
         Merz-Kollman RESP Net Atomic Charges

     Atom                 Charge (a.u.)
  ----------------------------------------
      1 O                    -0.723499
      2 C                     0.650278
      3 O                    -0.541262
      4 O                    -0.723499
      5 Li                    0.816881
      6 C                     0.967961
      7 C                    -1.932808
      8 H                    -0.097071
      9 H                    -0.097071
     10 H                     0.340044
     11 H                     0.340044
  ----------------------------------------
  Sum of atomic charges =    -1.000000

  Related Dipole Moment =    11.7941 (X -9.6604 Y -4.5470 Z  5.0103)

 -----------------------------------------------------------------
                    Cartesian Multipole Moments
 -----------------------------------------------------------------
    Charge (ESU x 10^10)
                -4.8032
    Dipole Moment (Debye)
         X      -9.8234      Y      -4.5597      Z       5.2127
       Tot      12.0192
    Quadrupole Moments (Debye-Ang)
        XX     -39.8059     XY     -14.2429     YY     -52.7177
        XZ      -9.2759     YZ       1.8359     ZZ     -46.4405
    Octopole Moments (Debye-Ang^2)
       XXX    -121.8668    XXY     -18.8002    XYY     -32.7843
       YYY     -36.2871    XXZ      34.9523    XYZ       5.1806
       YYZ      10.1557    XZZ     -21.7357    YZZ      -7.0399
       ZZZ      10.6837
    Hexadecapole Moments (Debye-Ang^3)
      XXXX    -602.7812   XXXY    -150.1013   XXYY    -172.7889
      XYYY    -117.3692   YYYY    -228.5217   XXXZ     -72.9570
      XXYZ       6.1426   XYYZ      14.0896   YYYZ       5.8499
      XXZZ    -119.6001   XYZZ     -36.3603   YYZZ     -64.6818
      XZZZ      10.7453   YZZZ      -3.5674   ZZZZ    -168.9252
 -----------------------------------------------------------------
 Calculating analytic gradient of the SCF energy
 Gradient of CDS energy
            1           2           3           4           5           6
    1  -0.0000905  -0.0000922   0.0007673  -0.0004924  -0.0000335   0.0002744
    2   0.0001059  -0.0005005   0.0002743   0.0000915  -0.0000086  -0.0014851
    3   0.0001139  -0.0002166   0.0000125   0.0002032   0.0000220   0.0001295
            7           8           9          10          11
    1   0.0005774  -0.0004113  -0.0002309  -0.0001745  -0.0000938
    2   0.0015852   0.0003444   0.0001541  -0.0002632  -0.0002980
    3  -0.0001012   0.0000185  -0.0001625   0.0000686  -0.0000879
 Gradient of SCF Energy
            1           2           3           4           5           6
    1   0.0036133   0.0195400  -0.0349934   0.0110971  -0.0115150   0.0303683
    2   0.0008026   0.0194155   0.0003947   0.0014068  -0.0010961  -0.0753795
    3  -0.0075412  -0.0095390  -0.0013249  -0.0002686   0.0056737   0.0147598
            7           8           9          10          11
    1   0.1386926   0.0005459  -0.0190381  -0.1017075  -0.0366032
    2   0.0206780   0.0109768   0.0203898   0.0134601  -0.0110489
    3   0.0763252  -0.0271623   0.0242075   0.0153162  -0.0904464
 Max gradient component =       1.387E-01
 RMS gradient           =       4.170E-02
 Computing fast CPCM-SWIG gradient
 Updating gradient with PCM contributions...
 -- total gradient after adding PCM contribution --
---------------------------------------------------
  Atom         X              Y              Z     
---------------------------------------------------
   1      -0.000005       0.000063       0.000044
   2       0.000064      -0.000003      -0.000097
   3      -0.000079      -0.000045       0.000032
   4      -0.000041       0.000011      -0.000048
   5      -0.000030      -0.000029      -0.000008
   6       0.000076      -0.000104       0.000029
   7      -0.000059      -0.000000      -0.000011
   8      -0.000001       0.000075       0.000013
   9       0.000020      -0.000002       0.000009
  10       0.000033       0.000009       0.000026
  11       0.000021       0.000026       0.000011
---------------------------------------------------
 Number of fixed atoms: 0
 Gradient time:  CPU 319.74 s  wall 23.45 s
-Performing force calculation on product structure in state0
 ----------------------------------------------------------------
             Standard Nuclear Orientation (Angstroms)
    I     Atom           X                Y                Z
 ----------------------------------------------------------------
    1      O      -6.3867805661    -3.2880715633     0.9404439859
    2      C      -6.8538684925    -2.1932277028     0.5428369639
    3      O      -8.1337035783    -2.0220435295     0.2861080927
    4      O      -6.0998667517    -1.1308117428     0.3521330631
    5      Li     -7.6493353822    -0.3246514658    -0.1382440791
    6      C       6.9120571216     1.2531782195    -0.0906868486
    7      C       7.5301559024     2.4078590819    -0.2998454870
    8      H       7.4336836747     0.3044654342    -0.1839555931
    9      H       5.8609026031     1.2121466890     0.1816409159
   10      H       8.5812664507     2.4488938999    -0.5723458592
   11      H       7.0084311025     3.3565464788    -0.2068940051
 ----------------------------------------------------------------
 Nuclear Repulsion Energy =         178.76996553 hartrees
 There are       25 alpha and       25 beta electrons
 Discretize the solute cavity surface with Lebedev spheres
	Using 110 Lebedev grid points for each H atom
	Using 194 Lebedev grid points for other atoms
	Atomic van der Waals radii will be scaled by 1.20
 Remove points where switching function is < 1.0e-08
 Keep 963 surface tesserae and discard 835 interior tesserae
 Molecular Surface Area = 194.909 Angst**2

                       Distance Matrix (Angstroms)
             O (  1)   C (  2)   O (  3)   O (  4)   Li(  5)   C (  6)
   C (  2)  1.254968
   O (  3)  2.254489  1.316507
   O (  4)  2.254373  1.316668  2.221519
   Li(  5)  3.396980  2.142012  1.815441  1.814171
   C (  6) 14.090609 14.204921 15.402726 13.235923 14.646705
   C (  7) 15.088508 15.125484 16.288765 14.096978 15.424321  1.326304
   H (  8) 14.323960 14.522426 15.747290 13.620000 15.096203  1.086669
   H (  9) 13.070329 13.167856 14.363840 12.189279 13.601125  1.086633
   H ( 10) 16.101048 16.156618 17.323869 15.139505 16.471595  2.109026
   H ( 11) 14.996634 14.950767 16.076583 13.866375 15.113109  2.108779
             C (  7)   H (  8)   H (  9)   H ( 10)
   H (  8)  2.108792
   H (  9)  2.109020  1.852346
   H ( 10)  1.086634  2.463000  3.081951
   H ( 11)  1.086667  3.081650  2.462972  1.852350
 
 Applying Cartesian multipole field
    Component          Value
    ---------          -----
     (2,0,0)        1.00000E-11
     (0,2,0)        2.00000E-11
     (0,0,2)       -3.00000E-11
 Nucleus-field energy     =     0.0000001021 hartrees
 Requested basis set is def2-TZVPPD
 There are 119 shells and 321 basis functions
 A cutoff of  1.0D-14 yielded   3795 shell pairs
 There are     27563 function pairs (     35097 Cartesian)
 Smallest overlap matrix eigenvalue = 1.17E-05
 Guess from superposition of atomic densities
 Warning:  Energy on first SCF cycle will be non-variational
 SAD guess density has 48.090450 electrons

 -----------------------------------------------------------------------
  General SCF calculation program by
  Eric Jon Sundstrom, Paul Horn, Yuezhi Mao, Dmitri Zuev, Alec White,
  David Stuck, Shaama M.S., Shane Yost, Joonho Lee, David Small,
  Daniel Levine, Susi Lehtola, Hugh Burton, Evgeny Epifanovsky
 -----------------------------------------------------------------------
 Exchange:     0.1670 Hartree-Fock + 1.0000 wB97X-V + LR-HF
 Correlation:  1.0000 wB97X-V
 Using SG-3 standard quadrature grid
 Nonlocal Correlation:  VV10 with C = 0.0100 and b = 6.00 and scale = 1.00000
 Grid used for NLC:  SG-1 standard quadrature
 
 Citation of the SMD model:
 Marenich, A.V.; Cramer, C.J.; Truhlar, D.G.
 J. Phys. Chem. B 2009, 113, 6378-6396.
 iSolventCode=           0
 Solvent: other                                                           
 
 vradii
            1           2           3           4           5           6
    1   2.2940000   1.8500000   2.2940000   2.2940000   2.1476001   1.8500000
            7           8           9          10          11
    1   1.8500000   1.2000000   1.2000000   1.2000000   1.2000000
 using 32 threads for integral computing
 -------------------------------------------------------
 OpenMP Integral computing Module                
 Release: version 1.0, May 2013, Q-Chem Inc. Pittsburgh 
 -------------------------------------------------------
 using 32 threads for integral computing
 -------------------------------------------------------
 OpenMP Integral computing Module                
 Release: version 1.0, May 2013, Q-Chem Inc. Pittsburgh 
 -------------------------------------------------------
 -------------------------------------------------------
 OpenMP BLAS3 based DFT computing Module                
 Release: version 1.0, May 2013, Q-Chem Inc. Pittsburgh 
 -------------------------------------------------------
 -------------------------------------------------------
 OpenMP BLAS3 based DFT computing Module                
 Release: version 1.0, May 2013, Q-Chem Inc. Pittsburgh 
 -------------------------------------------------------
 -------------------------------------------------------
 OpenMP BLAS3 based DFT computing Module                
 Release: version 1.0, May 2013, Q-Chem Inc. Pittsburgh 
 -------------------------------------------------------
 A restricted SCF calculation will be
 performed using DIIS, GDM
 SCF converges when RMS gradient is below 1.0e-08
 ---------------------------------------
  Cycle       Energy         DIIS error
 ---------------------------------------
    1   -2296.6619230122      2.69e-01  
    2     195.4530288978      8.66e-02  
    3    -302.7419021720      6.29e-02  
    4    -247.0135301033      3.85e-02  
    5    -295.8258463414      5.38e-02  
    6    -313.2207610509      4.09e-02  
    7    -321.2860314202      2.42e-02  
    8    -330.8370675531      3.05e-02  
    9    -336.6969660615      2.59e-02  
   10    -343.1086944111      2.03e-02  
   11    -344.2976577520      1.81e-02  
   12    -345.6831797357      1.53e-02  
   13    -347.8458441427      1.21e-02  
   14    -348.6714670383      9.53e-03  Done DIIS. Switching to GDM
 ---------------------------------------
  Cycle       Energy        RMS Gradient
 ---------------------------------------
    1    -348.6714670383      8.99e-01   Descent step
    2    -349.6361970054      2.41e-01   Descent step
    3    -350.0055259129      1.06e-01   Descent step
    4    -350.1217673283      3.00e-02   Normal BFGS step
    5    -350.1387948213      2.71e-02   Normal BFGS step
    6    -350.1412932074      1.62e-02   Normal BFGS step
    7    -350.1421040534      3.25e-03   Normal BFGS step
    8    -350.1421407318      1.79e-03   Normal BFGS step
    9    -350.1421628434      2.67e-04   Normal BFGS step
   10    -350.1421635137      1.30e-04   Normal BFGS step
   11    -350.1421636390      3.37e-05   Normal BFGS step
   12    -350.1421636430      2.87e-05   Normal BFGS step
   13    -350.1421636481      3.76e-06   Normal BFGS step
   14    -350.1421636481      4.06e-06   Normal BFGS step
   15    -350.1421636482      3.44e-07   Normal BFGS step
   16    -350.1421636482      1.69e-07   Normal BFGS step
   17    -350.1421636482      5.35e-08   Normal BFGS step
   18    -350.1421636482      1.49e-08   Normal BFGS step
   19    -350.1421636482      9.29e-09  Convergence criterion met
 ---------------------------------------
 SCF time:   CPU 2020.69s  wall 137.00s 
(3)  G-ENP(liq) elect-nuc-pol free energy of system     -350.142163648 a.u.
(4)  G-CDS(liq) cavity-dispersion-solvent structure 
     free energy                                               -2.0900 kcal/mol
(6)  G-S(liq) free energy of system                     -350.145494259 a.u.
 SCF   energy in the final basis set =     -350.1421636482
 Total energy in the final basis set =     -350.1454942591
 
 --------------------------------------------------------------
 
                    Orbital Energies (a.u.)
 --------------------------------------------------------------
 
 Alpha MOs
 -- Occupied --
-19.0973 -19.0973 -19.0893 -10.3242 -10.2607 -10.2598  -2.0289  -1.1221
 -1.0042  -0.9877  -0.8878  -0.6916  -0.5753  -0.5505  -0.5202  -0.4877
 -0.4792  -0.4783  -0.4485  -0.3748  -0.3470  -0.3193  -0.3098  -0.3070
 -0.2731
 -- Virtual --
  0.0419   0.0567   0.0574   0.0627   0.0835   0.0891   0.0973   0.1055
  0.1316   0.1338   0.1399   0.1410   0.1582   0.1611   0.1698   0.1700
  0.1721   0.1782   0.1792   0.1991   0.2004   0.2032   0.2062   0.2203
  0.2302   0.2416   0.2488   0.2560   0.2661   0.2748   0.2830   0.3026
  0.3082   0.3090   0.3212   0.3271   0.3272   0.3370   0.3502   0.3664
  0.3717   0.3873   0.3921   0.3963   0.4098   0.4252   0.4436   0.4444
  0.4445   0.4466   0.4477   0.4553   0.4558   0.4636   0.4695   0.4755
  0.4820   0.4909   0.4925   0.4993   0.5186   0.5186   0.5270   0.5420
  0.5456   0.5525   0.5617   0.5665   0.5689   0.5832   0.6026   0.6098
  0.6220   0.6323   0.6375   0.6435   0.6447   0.6465   0.6857   0.6877
  0.6927   0.6989   0.7061   0.7531   0.7564   0.7617   0.7706   0.7921
  0.8098   0.8131   0.8192   0.8213   0.8284   0.8401   0.8514   0.8665
  0.8903   0.8915   0.9008   0.9455   0.9822   0.9864   0.9898   0.9958
  1.0049   1.0427   1.0510   1.0547   1.0630   1.0726   1.1096   1.1165
  1.1219   1.1373   1.1835   1.2075   1.2554   1.2577   1.2593   1.2789
  1.2790   1.2866   1.2974   1.3619   1.3652   1.3891   1.4534   1.4699
  1.4844   1.4983   1.5678   1.5906   1.5922   1.6061   1.6068   1.6904
  1.6949   1.8320   1.8627   1.8763   1.8797   1.8902   1.8928   1.9112
  1.9185   1.9316   1.9433   1.9847   2.0104   2.0405   2.1650   2.1738
  2.2072   2.2122   2.2474   2.2872   2.3127   2.3293   2.3767   2.4229
  2.4607   2.4775   2.4803   2.5360   2.6326   2.6718   2.7076   2.7352
  2.8265   2.9028   2.9147   2.9192   2.9212   2.9585   2.9629   2.9989
  2.9994   3.0044   3.0428   3.0452   3.0580   3.0933   3.0971   3.2049
  3.2238   3.2392   3.2853   3.2937   3.2960   3.3308   3.3771   3.4063
  3.4219   3.4484   3.4734   3.4747   3.4816   3.5507   3.5511   3.5525
  3.5708   3.6010   3.6109   3.6157   3.6269   3.6638   3.6729   3.6919
  3.7150   3.7968   3.8140   3.8279   3.8424   3.8497   3.8857   3.9833
  4.0319   4.0484   4.0912   4.1173   4.1446   4.1802   4.1988   4.2462
  4.3315   4.3499   4.4083   4.4776   4.5196   4.6412   4.6814   4.7217
  4.7669   4.8143   4.8297   4.8847   4.8906   4.9989   5.1301   5.1443
  5.1985   5.2660   5.2875   5.3217   5.3499   5.3536   5.3747   5.3762
  5.4143   5.4481   5.4926   5.5048   5.5641   5.5708   5.6046   5.6514
  5.6709   5.6715   5.7749   5.9229   5.9766   5.9922   6.0213   6.0495
  6.1315   6.3227   6.3292   6.3565   6.3885   6.4127   6.4761   6.5778
  6.6123   6.6247   6.7317   6.7338   6.7506   6.7626   6.8010   6.8834
  6.9852   6.9920   7.0440   7.3291   7.3323   7.4176   7.4451   7.4921
  7.6009  14.9194  23.2800  23.8111  23.8860  44.1407  44.1656  44.3604
 --------------------------------------------------------------
 
          Ground-State Mulliken Net Atomic Charges

     Atom                 Charge (a.u.)
  ----------------------------------------
      1 O                    -0.688976
      2 C                     0.608150
      3 O                    -0.885639
      4 O                    -0.885969
      5 Li                    0.852434
      6 C                    -0.231148
      7 C                    -0.232015
      8 H                     0.115760
      9 H                     0.115875
     10 H                     0.115453
     11 H                     0.116076
  ----------------------------------------
  Sum of atomic charges =    -1.000000

  Building new vdw surfaces
         Merz-Kollman RESP Net Atomic Charges

     Atom                 Charge (a.u.)
  ----------------------------------------
      1 O                    -0.922081
      2 C                     1.022721
      3 O                    -0.945230
      4 O                    -0.922081
      5 Li                    0.766628
      6 C                    -0.395484
      7 C                    -0.398845
      8 H                     0.198458
      9 H                     0.198458
     10 H                     0.198729
     11 H                     0.198729
  ----------------------------------------
  Sum of atomic charges =    -1.000000

  Related Dipole Moment =    35.0549 (X 30.3932 Y 16.7758 Z -4.8655)

 -----------------------------------------------------------------
                    Cartesian Multipole Moments
 -----------------------------------------------------------------
    Charge (ESU x 10^10)
                -4.8032
    Dipole Moment (Debye)
         X      30.2476      Y      16.7779      Z      -4.8878
       Tot      34.9328
    Quadrupole Moments (Debye-Ang)
        XX    -236.9399     XY    -116.0255     YY     -85.1186
        XZ      31.7589     YZ      11.6598     ZZ     -45.2045
    Octopole Moments (Debye-Ang^2)
       XXX    1634.6193    XXY     856.0252    XYY     413.8906
       YYY     243.1069    XXZ    -246.5941    XYZ     -80.1331
       YYZ     -49.3140    XZZ      89.5561    YZZ      37.0907
       ZZZ     -33.8471
    Hexadecapole Moments (Debye-Ang^3)
      XXXX  -21404.4958   XXXY   -7640.4049   XXYY   -4333.9891
      XYYY   -2595.9494   YYYY   -1605.3278   XXXZ    1734.9326
      XXYZ     518.1821   XYYZ     343.7929   YYYZ     241.9380
      XXZZ   -2241.4216   XYZZ    -655.3924   YYZZ    -256.0702
      XZZZ     354.5154   YZZZ     130.9452   ZZZZ    -111.4956
 -----------------------------------------------------------------
 Calculating analytic gradient of the SCF energy
 Gradient of CDS energy
            1           2           3           4           5           6
    1   0.0002399   0.0004304  -0.0006171  -0.0000347  -0.0000186  -0.0007915
    2  -0.0005603  -0.0010156   0.0006383   0.0008935   0.0000441  -0.0014786
    3   0.0002038   0.0003699  -0.0002889  -0.0002700  -0.0000147   0.0002678
            7           8           9          10          11
    1   0.0007915  -0.0001302   0.0002625  -0.0002625   0.0001303
    2   0.0014786   0.0002369   0.0000102  -0.0000102  -0.0002369
    3  -0.0002679   0.0000233  -0.0000680   0.0000681  -0.0000232
 Gradient of SCF Energy
            1           2           3           4           5           6
    1  -0.0104754   0.0096747   0.0036600   0.0009658  -0.0038339   0.0001315
    2   0.0248362  -0.0232593  -0.0047880  -0.0059733   0.0091819   0.0024549
    3  -0.0089355   0.0082923   0.0020474   0.0019645  -0.0033710  -0.0001571
            7           8           9          10          11
    1  -0.0022482  -0.0034386   0.0082579  -0.0061491   0.0034553
    2  -0.0030606   0.0065477   0.0003773  -0.0002059  -0.0061110
    3   0.0006766   0.0006165  -0.0021014   0.0015884  -0.0006207
 Max gradient component =       2.484E-02
 RMS gradient           =       7.667E-03
 Computing fast CPCM-SWIG gradient
 Updating gradient with PCM contributions...
 -- total gradient after adding PCM contribution --
---------------------------------------------------
  Atom         X              Y              Z     
---------------------------------------------------
   1      -0.000010       0.000215      -0.000027
   2      -0.000038      -0.000135      -0.000069
   3      -0.000107      -0.000123       0.000028
   4       0.000069      -0.000022       0.000084
   5       0.000085       0.000066      -0.000017
   6      -0.000075      -0.000020       0.000029
   7       0.000090       0.000009      -0.000015
   8       0.000058       0.000024      -0.000012
   9       0.000006       0.000015       0.000022
  10      -0.000028      -0.000005      -0.000018
  11      -0.000051      -0.000022      -0.000005
---------------------------------------------------
 Number of fixed atoms: 0
 Gradient time:  CPU 116.69 s  wall 9.60 s

STARTING FREEZING STRING ITERATION # 1
 The distance between the innermost nodes (Angstroms): 19.505
-Adding two new nodes
 The distance between the previous and current R_nodes (Angstroms): 1.2720
 The distance between the previous and current P_nodes (Angstroms): 1.3616
-Optimizing new reactant side node
 Using BFGS, step: 2 E_tol 0.0451
 max_steps 4, node_spacing 1.3003, sigma 0.7000
 ----------------------------------------------------------------
             Standard Nuclear Orientation (Angstroms)
    I     Atom           X                Y                Z
 ----------------------------------------------------------------
    1      O      -0.9722846393    -0.1384993692     1.2192199388
    2      C      -1.0549955448    -0.3712099117    -0.0228403390
    3      O      -0.0435430624    -0.7021898825    -0.8005579011
    4      O      -2.1629757021    -0.4215033577    -0.6500494793
    5      Li     -2.8794224386     0.1517451878     0.9561725210
    6      C       2.0933599218    -0.0617329047    -0.0625944071
    7      C       2.4794800523     1.3520159353    -0.1909624418
    8      H       2.0852664599    -0.4677174615     0.9532786181
    9      H       2.6849473205    -0.7329884726    -0.6913747310
   10      H       3.4236674176     1.5067320293    -0.7254094055
   11      H       2.4982404015     1.8922186575     0.7619208567
 ----------------------------------------------------------------
 Nuclear Repulsion Energy =         233.24929404 hartrees
 There are       25 alpha and       25 beta electrons
 Discretize the solute cavity surface with Lebedev spheres
	Using 110 Lebedev grid points for each H atom
	Using 194 Lebedev grid points for other atoms
	Atomic van der Waals radii will be scaled by 1.20
 Remove points where switching function is < 1.0e-08
 Keep 902 surface tesserae and discard 896 interior tesserae
 Molecular Surface Area = 171.010 Angst**2

                       Distance Matrix (Angstroms)
             O (  1)   C (  2)   O (  3)   O (  4)   Li(  5)   C (  6)
   C (  2)  1.266376
   O (  3)  2.293428  1.318116
   O (  4)  2.234279  1.274182  2.143229
   Li(  5)  1.946949  2.135528  3.443475  1.849827
   C (  6)  3.323720  3.163779  2.349708  4.311720  5.080553
   C (  7)  4.015586  3.935771  3.310138  4.990844  5.610205  1.471140
   H (  8)  3.086702  3.289889  2.768167  4.540964  5.003187  1.094023
   H (  9)  4.168829  3.816411  2.730848  4.858095  5.870211  1.093583
   H ( 10)  5.080626  4.907004  4.111755  5.910529  6.662781  2.160816
   H ( 11)  4.046910  4.285376  3.953854  5.392022  5.655638  2.159092
             C (  7)   H (  8)   H (  9)   H ( 10)
   H (  8)  2.185434
   H (  9)  2.154036  1.770557
   H ( 10)  1.095929  2.916807  2.358647
   H ( 11)  1.095517  2.403428  3.006433  1.793646
 
 Applying Cartesian multipole field
    Component          Value
    ---------          -----
     (2,0,0)        1.00000E-11
     (0,2,0)        2.00000E-11
     (0,0,2)       -3.00000E-11
 Nucleus-field energy     =     0.0000000050 hartrees
 Requested basis set is def2-TZVPPD
 There are 119 shells and 321 basis functions
 A cutoff of  1.0D-14 yielded   6562 shell pairs
 There are     48326 function pairs (     61460 Cartesian)
 Smallest overlap matrix eigenvalue = 1.67E-05
 Guess from superposition of atomic densities
 Warning:  Energy on first SCF cycle will be non-variational
 SAD guess density has 48.090450 electrons

 -----------------------------------------------------------------------
  General SCF calculation program by
  Eric Jon Sundstrom, Paul Horn, Yuezhi Mao, Dmitri Zuev, Alec White,
  David Stuck, Shaama M.S., Shane Yost, Joonho Lee, David Small,
  Daniel Levine, Susi Lehtola, Hugh Burton, Evgeny Epifanovsky
 -----------------------------------------------------------------------
 Exchange:     0.1670 Hartree-Fock + 1.0000 wB97X-V + LR-HF
 Correlation:  1.0000 wB97X-V
 Using SG-3 standard quadrature grid
 Nonlocal Correlation:  VV10 with C = 0.0100 and b = 6.00 and scale = 1.00000
 Grid used for NLC:  SG-1 standard quadrature
 
 Citation of the SMD model:
 Marenich, A.V.; Cramer, C.J.; Truhlar, D.G.
 J. Phys. Chem. B 2009, 113, 6378-6396.
 iSolventCode=           0
 Solvent: other                                                           
 
 vradii
            1           2           3           4           5           6
    1   2.2940000   1.8500000   2.2940000   2.2940000   2.1476001   1.8500000
            7           8           9          10          11
    1   1.8500000   1.2000000   1.2000000   1.2000000   1.2000000
 using 32 threads for integral computing
 -------------------------------------------------------
 OpenMP Integral computing Module                
 Release: version 1.0, May 2013, Q-Chem Inc. Pittsburgh 
 -------------------------------------------------------
 using 32 threads for integral computing
 -------------------------------------------------------
 OpenMP Integral computing Module                
 Release: version 1.0, May 2013, Q-Chem Inc. Pittsburgh 
 -------------------------------------------------------
 -------------------------------------------------------
 OpenMP BLAS3 based DFT computing Module                
 Release: version 1.0, May 2013, Q-Chem Inc. Pittsburgh 
 -------------------------------------------------------
 -------------------------------------------------------
 OpenMP BLAS3 based DFT computing Module                
 Release: version 1.0, May 2013, Q-Chem Inc. Pittsburgh 
 -------------------------------------------------------
 -------------------------------------------------------
 OpenMP BLAS3 based DFT computing Module                
 Release: version 1.0, May 2013, Q-Chem Inc. Pittsburgh 
 -------------------------------------------------------
 A restricted SCF calculation will be
 performed using DIIS, GDM
 SCF converges when RMS gradient is below 1.0e-08
 ---------------------------------------
  Cycle       Energy         DIIS error
 ---------------------------------------
    1    -349.9637151141      2.39e-02  
    2    -348.9938932984      1.09e-02  
    3    -349.5535096466      7.66e-03  Done DIIS. Switching to GDM
 ---------------------------------------
  Cycle       Energy        RMS Gradient
 ---------------------------------------
    1    -349.5535096466      2.96e-01   Descent step
    2    -350.0090753122      7.22e-02   Normal BFGS step
    3    -350.0438904604      6.10e-02   Normal BFGS step
    4    -350.0577258911      2.22e-02   Normal BFGS step
    5    -350.0604744347      3.86e-03   Normal BFGS step
    6    -350.0606388166      9.41e-04   Normal BFGS step
    7    -350.0606870860      1.17e-03   Normal BFGS step
    8    -350.0606929316      5.62e-04   Normal BFGS step
    9    -350.0606942741      1.52e-04   Normal BFGS step
   10    -350.0606945253      8.13e-05   Normal BFGS step
   11    -350.0606945545      2.22e-05   Normal BFGS step
   12    -350.0606945569      2.04e-05   Normal BFGS step
   13    -350.0606945586      2.22e-06   Normal BFGS step
   14    -350.0606945587      1.94e-06   Normal BFGS step
   15    -350.0606945587      4.09e-07   Normal BFGS step
   16    -350.0606945588      1.38e-07   Normal BFGS step
   17    -350.0606945588      1.52e-08   Normal BFGS step
   18    -350.0606945587      9.44e-09  Convergence criterion met
 ---------------------------------------
 SCF time:   CPU 2168.87s  wall 114.00s 
(3)  G-ENP(liq) elect-nuc-pol free energy of system     -350.060694559 a.u.
(4)  G-CDS(liq) cavity-dispersion-solvent structure 
     free energy                                               -1.8508 kcal/mol
(6)  G-S(liq) free energy of system                     -350.063644040 a.u.
 SCF   energy in the final basis set =     -350.0606945587
 Total energy in the final basis set =     -350.0636440404
 
 --------------------------------------------------------------
 
                    Orbital Energies (a.u.)
 --------------------------------------------------------------
 
 Alpha MOs
 -- Occupied --
-19.1192 -19.1051 -19.0926 -10.3311 -10.2780 -10.2250  -2.0563  -1.1428
 -1.0274  -0.9867  -0.8360  -0.6685  -0.5610  -0.5262  -0.5018  -0.4954
 -0.4901  -0.4685  -0.4170  -0.3559  -0.3496  -0.3282  -0.3164  -0.2960
 -0.2520
 -- Virtual --
  0.0396   0.0555   0.0563   0.0636   0.0756   0.1006   0.1092   0.1224
  0.1278   0.1436   0.1502   0.1527   0.1593   0.1627   0.1687   0.1725
  0.1814   0.1915   0.2102   0.2152   0.2162   0.2314   0.2387   0.2529
  0.2605   0.2641   0.2745   0.2926   0.3008   0.3158   0.3177   0.3300
  0.3414   0.3457   0.3528   0.3593   0.3647   0.3817   0.3838   0.3947
  0.4039   0.4126   0.4159   0.4309   0.4379   0.4409   0.4427   0.4529
  0.4553   0.4657   0.4668   0.4791   0.4879   0.4923   0.4953   0.5132
  0.5229   0.5279   0.5325   0.5422   0.5503   0.5541   0.5683   0.5705
  0.5850   0.5964   0.6063   0.6141   0.6238   0.6352   0.6404   0.6547
  0.6599   0.6720   0.6869   0.6924   0.7051   0.7164   0.7236   0.7445
  0.7566   0.7583   0.7787   0.7875   0.7975   0.8079   0.8211   0.8272
  0.8369   0.8494   0.8541   0.8759   0.8841   0.8955   0.9275   0.9376
  0.9853   0.9910   1.0073   1.0130   1.0274   1.0468   1.0589   1.0651
  1.0761   1.0954   1.1016   1.1185   1.1338   1.1573   1.1836   1.2283
  1.2316   1.2442   1.2584   1.2950   1.2990   1.3063   1.3144   1.3229
  1.3398   1.3709   1.4031   1.4081   1.4319   1.4586   1.4952   1.5363
  1.5472   1.5555   1.6170   1.6420   1.6626   1.6954   1.7151   1.7311
  1.7900   1.8130   1.8662   1.8901   1.8998   1.9175   1.9562   1.9649
  1.9852   2.0088   2.0164   2.0228   2.0605   2.0879   2.1081   2.1642
  2.2092   2.2189   2.2922   2.3370   2.3667   2.4146   2.4680   2.4845
  2.5095   2.5281   2.5467   2.5727   2.7221   2.7347   2.7600   2.8192
  2.8359   2.8559   2.8950   2.9165   2.9680   2.9750   3.0420   3.0640
  3.0802   3.0956   3.1558   3.1694   3.2095   3.2123   3.2247   3.2456
  3.2539   3.2823   3.2954   3.3196   3.3589   3.3727   3.4033   3.4068
  3.4473   3.4596   3.5032   3.5238   3.5523   3.5690   3.5802   3.5882
  3.6231   3.6278   3.6352   3.6497   3.6825   3.6911   3.7107   3.7190
  3.7255   3.7434   3.7604   3.8119   3.8669   3.9025   3.9315   4.0176
  4.0564   4.0701   4.1462   4.2152   4.2249   4.2459   4.2797   4.2965
  4.3486   4.3890   4.4241   4.4800   4.5597   4.6581   4.7278   4.7589
  4.7714   4.8678   4.8985   4.9387   4.9569   5.0525   5.1000   5.1469
  5.2219   5.3006   5.3224   5.3365   5.3416   5.3508   5.3573   5.3714
  5.4178   5.4231   5.4376   5.4728   5.5866   5.5970   5.6198   5.6592
  5.6827   5.7153   5.7294   5.7437   5.7514   5.8881   5.9252   6.0576
  6.0822   6.1014   6.2860   6.3348   6.3479   6.3823   6.4419   6.5668
  6.6239   6.6616   6.7369   6.7503   6.7637   6.7751   6.8557   6.9197
  6.9974   7.0233   7.0606   7.3059   7.3672   7.4165   7.4683   7.5237
  7.6429  14.8068  23.0330  23.3671  23.9198  44.2277  44.3107  44.3925
 --------------------------------------------------------------
 
          Ground-State Mulliken Net Atomic Charges

     Atom                 Charge (a.u.)
  ----------------------------------------
      1 O                    -0.825573
      2 C                     0.628198
      3 O                    -0.671511
      4 O                    -0.867783
      5 Li                    0.858956
      6 C                     0.239911
      7 C                    -0.713473
      8 H                     0.047148
      9 H                     0.059123
     10 H                     0.140472
     11 H                     0.104533
  ----------------------------------------
  Sum of atomic charges =    -1.000000

  Building new vdw surfaces
         Merz-Kollman RESP Net Atomic Charges

     Atom                 Charge (a.u.)
  ----------------------------------------
      1 O                    -0.888225
      2 C                     0.981490
      3 O                    -0.861673
      4 O                    -0.888225
      5 Li                    0.793657
      6 C                     0.338848
      7 C                    -0.962112
      8 H                     0.025691
      9 H                     0.025691
     10 H                     0.217429
     11 H                     0.217429
  ----------------------------------------
  Sum of atomic charges =    -1.000000

  Related Dipole Moment =     6.5328 (X -3.6719 Y  1.1770 Z  5.2735)

 -----------------------------------------------------------------
                    Cartesian Multipole Moments
 -----------------------------------------------------------------
    Charge (ESU x 10^10)
                -4.8032
    Dipole Moment (Debye)
         X      -3.7767      Y       1.2203      Z       5.4653
       Tot       6.7544
    Quadrupole Moments (Debye-Ang)
        XX     -30.1628     XY     -10.1197     YY     -46.6896
        XZ     -11.2173     YZ      -0.2012     ZZ     -47.5964
    Octopole Moments (Debye-Ang^2)
       XXX     -79.6159    XXY       2.4916    XYY     -12.1045
       YYY      -6.7289    XXZ      43.5814    XYZ       2.9675
       YYZ       8.3628    XZZ      -7.0530    YZZ       2.3838
       ZZZ       9.9047
    Hexadecapole Moments (Debye-Ang^3)
      XXXX    -677.3046   XXXY    -158.7717   XXYY    -185.0911
      XYYY    -119.9587   YYYY    -202.4192   XXXZ    -121.0480
      XXYZ       4.2497   XYYZ       9.9062   YYYZ      -3.4223
      XXZZ    -149.5189   XYZZ     -42.5298   YYZZ     -62.9142
      XZZZ      10.4477   YZZZ      -7.6349   ZZZZ    -181.1091
 -----------------------------------------------------------------
 Calculating analytic gradient of the SCF energy
 Gradient of CDS energy
            1           2           3           4           5           6
    1  -0.0002975   0.0001756   0.0006345  -0.0004024  -0.0000525   0.0000643
    2   0.0002289  -0.0002662   0.0000492   0.0001066  -0.0000576  -0.0017582
    3   0.0002591   0.0001777  -0.0004959   0.0001291   0.0000190   0.0000974
            7           8           9          10          11
    1   0.0005146  -0.0003340  -0.0000777  -0.0001838  -0.0000412
    2   0.0017103   0.0002469   0.0002555  -0.0002407  -0.0002749
    3  -0.0001191  -0.0000422   0.0000171   0.0000680  -0.0001104
 Gradient of SCF Energy
            1           2           3           4           5           6
    1   0.0131603  -0.0348880  -0.0235581   0.0473603  -0.0156489  -0.0017040
    2  -0.0131593   0.0299797  -0.0073678  -0.0122113   0.0045325  -0.0871236
    3  -0.0249182   0.0408353  -0.0229094  -0.0062569   0.0062232   0.0158250
            7           8           9          10          11
    1   0.0304511   0.0190170  -0.0016886  -0.0385382   0.0060370
    2   0.0727354   0.0128339   0.0191995  -0.0007010  -0.0187181
    3   0.0036043  -0.0298789   0.0308042   0.0263404  -0.0396689
 Max gradient component =       8.712E-02
 RMS gradient           =       2.994E-02
 Computing fast CPCM-SWIG gradient
 Updating gradient with PCM contributions...
 -- total gradient after adding PCM contribution --
---------------------------------------------------
  Atom         X              Y              Z     
---------------------------------------------------
   1       0.010863      -0.012678      -0.017336
   2      -0.053269       0.039805       0.061754
   3      -0.010814      -0.014263      -0.034282
   4       0.051165      -0.015760      -0.011799
   5      -0.006386       0.002288      -0.000014
   6      -0.067244      -0.074465      -0.007742
   7       0.000981       0.083678      -0.028405
   8       0.030353      -0.001738       0.005174
   9       0.018348       0.000751       0.011147
  10       0.014164      -0.004149       0.017057
  11       0.011840      -0.003470       0.004446
---------------------------------------------------
 Number of fixed atoms: 0
 Gradient time:  CPU 282.21 s  wall 14.35 s
 ----------------------------------------------------------------
             Standard Nuclear Orientation (Angstroms)
    I     Atom           X                Y                Z
 ----------------------------------------------------------------
    1      O      -0.9755540681    -0.1356399627     1.2236861337
    2      C      -1.0420494405    -0.3814787880    -0.0384885268
    3      O      -0.0414788827    -0.6988907433    -0.7918640739
    4      O      -2.1765451460    -0.4175341440    -0.6470418281
    5      Li     -2.8783615846     0.1511798806     0.9561465923
    6      C       2.1109346090    -0.0426597852    -0.0605946004
    7      C       2.4797265614     1.3309005255    -0.1837612971
    8      H       2.0781348274    -0.4671469868     0.9519840446
    9      H       2.6806758209    -0.7330356911    -0.6942516853
   10      H       3.4205819739     1.5079299637    -0.7297222541
   11      H       2.4956607457     1.8932929928     0.7607461515
 ----------------------------------------------------------------
 Nuclear Repulsion Energy =         233.27533167 hartrees
 There are       25 alpha and       25 beta electrons
 Discretize the solute cavity surface with Lebedev spheres
	Using 110 Lebedev grid points for each H atom
	Using 194 Lebedev grid points for other atoms
	Atomic van der Waals radii will be scaled by 1.20
 Remove points where switching function is < 1.0e-08
 Keep 899 surface tesserae and discard 899 interior tesserae
 Molecular Surface Area = 170.877 Angst**2

                       Distance Matrix (Angstroms)
             O (  1)   C (  2)   O (  3)   O (  4)   Li(  5)   C (  6)
   C (  2)  1.287611
   O (  3)  2.291766  1.292078
   O (  4)  2.240863  1.287912  2.158389
   Li(  5)  1.942812  2.155242  3.438905  1.840162
   C (  6)  3.344314  3.171214  2.366068  4.343608  5.095529
   C (  7)  4.008817  3.918706  3.293375  4.995250  5.603592  1.427531
   H (  8)  3.083624  3.274740  2.754537  4.545508  4.994918  1.098445
   H (  9)  4.171736  3.796354  2.724118  4.867686  5.865880  1.096697
   H ( 10)  5.083615  4.895176  4.106067  5.919635  6.660301  2.137109
   H ( 11)  4.047248  4.281210  3.945515  5.399194  5.652721  2.137879
             C (  7)   H (  8)   H (  9)   H ( 10)
   H (  8)  2.164294
   H (  9)  2.135606  1.773089
   H ( 10)  1.102099  2.920827  2.360222
   H ( 11)  1.099379  2.404699  3.008131  1.795962
 
 Applying Cartesian multipole field
    Component          Value
    ---------          -----
     (2,0,0)        1.00000E-11
     (0,2,0)        2.00000E-11
     (0,0,2)       -3.00000E-11
 Nucleus-field energy     =     0.0000000050 hartrees
 Requested basis set is def2-TZVPPD
 There are 119 shells and 321 basis functions
 A cutoff of  1.0D-14 yielded   6564 shell pairs
 There are     48298 function pairs (     61385 Cartesian)
 Smallest overlap matrix eigenvalue = 1.47E-05
 Guess from superposition of atomic densities
 Warning:  Energy on first SCF cycle will be non-variational
 SAD guess density has 48.090450 electrons

 -----------------------------------------------------------------------
  General SCF calculation program by
  Eric Jon Sundstrom, Paul Horn, Yuezhi Mao, Dmitri Zuev, Alec White,
  David Stuck, Shaama M.S., Shane Yost, Joonho Lee, David Small,
  Daniel Levine, Susi Lehtola, Hugh Burton, Evgeny Epifanovsky
 -----------------------------------------------------------------------
 Exchange:     0.1670 Hartree-Fock + 1.0000 wB97X-V + LR-HF
 Correlation:  1.0000 wB97X-V
 Using SG-3 standard quadrature grid
 Nonlocal Correlation:  VV10 with C = 0.0100 and b = 6.00 and scale = 1.00000
 Grid used for NLC:  SG-1 standard quadrature
 
 Citation of the SMD model:
 Marenich, A.V.; Cramer, C.J.; Truhlar, D.G.
 J. Phys. Chem. B 2009, 113, 6378-6396.
 iSolventCode=           0
 Solvent: other                                                           
 
 vradii
            1           2           3           4           5           6
    1   2.2940000   1.8500000   2.2940000   2.2940000   2.1476001   1.8500000
            7           8           9          10          11
    1   1.8500000   1.2000000   1.2000000   1.2000000   1.2000000
 using 32 threads for integral computing
 -------------------------------------------------------
 OpenMP Integral computing Module                
 Release: version 1.0, May 2013, Q-Chem Inc. Pittsburgh 
 -------------------------------------------------------
 using 32 threads for integral computing
 -------------------------------------------------------
 OpenMP Integral computing Module                
 Release: version 1.0, May 2013, Q-Chem Inc. Pittsburgh 
 -------------------------------------------------------
 -------------------------------------------------------
 OpenMP BLAS3 based DFT computing Module                
 Release: version 1.0, May 2013, Q-Chem Inc. Pittsburgh 
 -------------------------------------------------------
 -------------------------------------------------------
 OpenMP BLAS3 based DFT computing Module                
 Release: version 1.0, May 2013, Q-Chem Inc. Pittsburgh 
 -------------------------------------------------------
 -------------------------------------------------------
 OpenMP BLAS3 based DFT computing Module                
 Release: version 1.0, May 2013, Q-Chem Inc. Pittsburgh 
 -------------------------------------------------------
 A restricted SCF calculation will be
 performed using DIIS, GDM
 SCF converges when RMS gradient is below 1.0e-08
 ---------------------------------------
  Cycle       Energy         DIIS error
 ---------------------------------------
    1    -348.2297727744      2.39e-02  
    2    -349.0259472430      1.09e-02  
    3    -349.6160215593      7.42e-03  Done DIIS. Switching to GDM
 ---------------------------------------
  Cycle       Energy        RMS Gradient
 ---------------------------------------
    1    -349.6160215593      3.39e-01   Descent step
    2    -350.0369721351      4.64e-02   Normal BFGS step
    3    -350.0667165200      4.42e-02   Normal BFGS step
    4    -350.0718473988      2.53e-02   Normal BFGS step
    5    -350.0746836331      2.04e-03   Normal BFGS step
    6    -350.0747499223      1.04e-03   Normal BFGS step
    7    -350.0747688162      4.37e-04   Normal BFGS step
    8    -350.0747706703      1.82e-04   Normal BFGS step
    9    -350.0747708703      1.57e-04   Normal BFGS step
   10    -350.0747710183      6.35e-05   Normal BFGS step
   11    -350.0747710276      2.10e-05   Normal BFGS step
   12    -350.0747710320      4.37e-06   Normal BFGS step
   13    -350.0747710322      9.74e-07   Normal BFGS step
   14    -350.0747710322      4.28e-07   Normal BFGS step
   15    -350.0747710322      9.54e-08   Normal BFGS step
   16    -350.0747710322      3.87e-08   Normal BFGS step
   17    -350.0747710322      8.26e-09  Convergence criterion met
 ---------------------------------------
 SCF time:   CPU 2063.80s  wall 110.00s 
(3)  G-ENP(liq) elect-nuc-pol free energy of system     -350.074771032 a.u.
(4)  G-CDS(liq) cavity-dispersion-solvent structure 
     free energy                                               -1.9078 kcal/mol
(6)  G-S(liq) free energy of system                     -350.077811227 a.u.
 SCF   energy in the final basis set =     -350.0747710322
 Total energy in the final basis set =     -350.0778112270
 
 --------------------------------------------------------------
 
                    Orbital Energies (a.u.)
 --------------------------------------------------------------
 
 Alpha MOs
 -- Occupied --
-19.1132 -19.1012 -19.0914 -10.3287 -10.2716 -10.2260  -2.0500  -1.1344
 -1.0149  -0.9923  -0.8443  -0.6666  -0.5573  -0.5289  -0.4970  -0.4904
 -0.4859  -0.4771  -0.4136  -0.3551  -0.3477  -0.3218  -0.3153  -0.2969
 -0.2568
 -- Virtual --
  0.0400   0.0559   0.0566   0.0639   0.0811   0.1004   0.1091   0.1223
  0.1282   0.1438   0.1506   0.1528   0.1606   0.1628   0.1691   0.1735
  0.1814   0.1914   0.2107   0.2157   0.2162   0.2318   0.2404   0.2540
  0.2614   0.2635   0.2746   0.2921   0.3015   0.3148   0.3186   0.3310
  0.3423   0.3455   0.3519   0.3581   0.3641   0.3826   0.3845   0.3956
  0.4039   0.4142   0.4178   0.4325   0.4390   0.4417   0.4432   0.4541
  0.4583   0.4680   0.4691   0.4850   0.4910   0.4939   0.4990   0.5141
  0.5251   0.5283   0.5335   0.5412   0.5514   0.5533   0.5674   0.5704
  0.5866   0.6009   0.6076   0.6147   0.6242   0.6345   0.6433   0.6560
  0.6595   0.6726   0.6866   0.6966   0.7077   0.7190   0.7279   0.7457
  0.7579   0.7627   0.7818   0.7877   0.8000   0.8070   0.8213   0.8257
  0.8384   0.8495   0.8549   0.8772   0.8859   0.8937   0.9284   0.9392
  0.9872   0.9902   1.0062   1.0147   1.0301   1.0475   1.0622   1.0645
  1.0790   1.0969   1.1025   1.1161   1.1366   1.1587   1.1859   1.2290
  1.2335   1.2409   1.2603   1.2950   1.2977   1.3075   1.3175   1.3259
  1.3437   1.3697   1.4034   1.4145   1.4374   1.4595   1.5036   1.5400
  1.5528   1.5636   1.6156   1.6425   1.6641   1.6979   1.7187   1.7296
  1.7924   1.8162   1.8660   1.8937   1.9012   1.9217   1.9642   1.9683
  1.9889   2.0116   2.0201   2.0249   2.0684   2.0903   2.1138   2.1649
  2.2066   2.2193   2.2999   2.3419   2.3673   2.4406   2.4702   2.4776
  2.4995   2.5137   2.5498   2.5527   2.7241   2.7410   2.7762   2.8233
  2.8539   2.8608   2.9002   2.9176   2.9705   2.9850   3.0353   3.0565
  3.0773   3.1040   3.1654   3.1774   3.2021   3.2135   3.2252   3.2401
  3.2595   3.2846   3.3011   3.3172   3.3506   3.3780   3.4147   3.4184
  3.4512   3.4699   3.5108   3.5247   3.5439   3.5665   3.5754   3.5975
  3.6147   3.6317   3.6417   3.6484   3.6716   3.6790   3.7071   3.7188
  3.7305   3.7477   3.7705   3.8160   3.8769   3.9243   3.9586   4.0198
  4.0631   4.0725   4.1432   4.2162   4.2220   4.2496   4.2767   4.3135
  4.3502   4.3976   4.4266   4.4822   4.5932   4.6824   4.7262   4.7496
  4.7749   4.8724   4.9093   4.9327   4.9583   5.0574   5.0991   5.1460
  5.2237   5.3039   5.3233   5.3355   5.3454   5.3531   5.3677   5.3851
  5.4189   5.4278   5.4361   5.4658   5.5714   5.5901   5.6093   5.6558
  5.6875   5.7157   5.7311   5.7520   5.8001   5.8981   5.9315   6.0551
  6.0767   6.1084   6.2931   6.3190   6.3559   6.3778   6.4364   6.5395
  6.6221   6.6631   6.7387   6.7536   6.7716   6.7767   6.8645   6.9027
  6.9999   7.0160   7.0647   7.3241   7.3583   7.4163   7.4701   7.5238
  7.6273  14.8211  23.0354  23.4514  23.8921  44.2196  44.3060  44.4033
 --------------------------------------------------------------
 
          Ground-State Mulliken Net Atomic Charges

     Atom                 Charge (a.u.)
  ----------------------------------------
      1 O                    -0.853246
      2 C                     0.632661
      3 O                    -0.657735
      4 O                    -0.886964
      5 Li                    0.858495
      6 C                     0.243669
      7 C                    -0.678580
      8 H                     0.038259
      9 H                     0.054124
     10 H                     0.143600
     11 H                     0.105718
  ----------------------------------------
  Sum of atomic charges =    -1.000000

  Building new vdw surfaces
         Merz-Kollman RESP Net Atomic Charges

     Atom                 Charge (a.u.)
  ----------------------------------------
      1 O                    -0.917055
      2 C                     0.998939
      3 O                    -0.855490
      4 O                    -0.917055
      5 Li                    0.797567
      6 C                     0.296205
      7 C                    -0.872102
      8 H                     0.033862
      9 H                     0.033862
     10 H                     0.200633
     11 H                     0.200633
  ----------------------------------------
  Sum of atomic charges =    -1.000000

  Related Dipole Moment =     5.9191 (X -2.8803 Y  1.5040 Z  4.9474)

 -----------------------------------------------------------------
                    Cartesian Multipole Moments
 -----------------------------------------------------------------
    Charge (ESU x 10^10)
                -4.8032
    Dipole Moment (Debye)
         X      -2.9896      Y       1.5581      Z       5.1383
       Tot       6.1455
    Quadrupole Moments (Debye-Ang)
        XX     -30.1939     XY      -9.3668     YY     -45.8480
        XZ     -11.3032     YZ      -0.3590     ZZ     -47.7465
    Octopole Moments (Debye-Ang^2)
       XXX     -73.6973    XXY       4.8682    XYY      -9.7964
       YYY      -4.6362    XXZ      43.1644    XYZ       2.6131
       YYZ       7.5895    XZZ      -5.8912    YZZ       2.8955
       ZZZ       8.6714
    Hexadecapole Moments (Debye-Ang^3)
      XXXX    -677.9096   XXXY    -153.0597   XXYY    -181.4716
      XYYY    -115.5094   YYYY    -194.3619   XXXZ    -122.5156
      XXYZ       3.2433   XYYZ       8.9234   YYYZ      -4.5446
      XXZZ    -150.4963   XYZZ     -41.7123   YYZZ     -61.9033
      XZZZ       9.7464   YZZZ      -8.0955   ZZZZ    -182.0808
 -----------------------------------------------------------------
 Calculating analytic gradient of the SCF energy
 Gradient of CDS energy
            1           2           3           4           5           6
    1  -0.0002903   0.0004474   0.0005079  -0.0005096  -0.0000519   0.0001181
    2   0.0002552  -0.0003932   0.0001209   0.0001191  -0.0000529  -0.0015936
    3   0.0004012  -0.0001130  -0.0003219   0.0001110   0.0000156   0.0001126
            7           8           9          10          11
    1   0.0004585  -0.0003537  -0.0001198  -0.0001691  -0.0000375
    2   0.0015970   0.0002193   0.0002132  -0.0002281  -0.0002568
    3  -0.0001095  -0.0000438  -0.0000086   0.0000638  -0.0001073
 Gradient of SCF Energy
            1           2           3           4           5           6
    1   0.0121424  -0.0108766  -0.0295567   0.0344800  -0.0168996   0.0017157
    2  -0.0093267   0.0203468  -0.0029830  -0.0107975   0.0047781  -0.0639366
    3  -0.0082202   0.0170150  -0.0125619  -0.0079809   0.0061416   0.0114841
            7           8           9          10          11
    1   0.0111516   0.0198919  -0.0011048  -0.0284078   0.0074639
    2   0.0536729   0.0109744   0.0176919  -0.0027380  -0.0176823
    3   0.0002542  -0.0262860   0.0286812   0.0265971  -0.0351243
 Max gradient component =       6.394E-02
 RMS gradient           =       2.241E-02
 Computing fast CPCM-SWIG gradient
 Updating gradient with PCM contributions...
 -- total gradient after adding PCM contribution --
---------------------------------------------------
  Atom         X              Y              Z     
---------------------------------------------------
   1       0.009800      -0.008206      -0.001689
   2      -0.030785       0.029062       0.038694
   3      -0.012023      -0.008933      -0.024773
   4       0.037436      -0.013547      -0.012424
   5      -0.007747       0.002437      -0.000012
   6      -0.064952      -0.051889      -0.012626
   7      -0.011487       0.063379      -0.028035
   8       0.030063      -0.003946       0.008016
   9       0.018375      -0.001811       0.009917
  10       0.018517      -0.004345       0.016295
  11       0.012804      -0.002201       0.006638
---------------------------------------------------
 Number of fixed atoms: 0
 Gradient time:  CPU 282.41 s  wall 17.49 s
 ----------------------------------------------------------------
             Standard Nuclear Orientation (Angstroms)
    I     Atom           X                Y                Z
 ----------------------------------------------------------------
    1      O      -0.9834993541    -0.1301117271     1.2250231898
    2      C      -1.0202038608    -0.4031179826    -0.0669374595
    3      O      -0.0335962683    -0.6927737262    -0.7736323368
    4      O      -2.2049438083    -0.4076117783    -0.6378680274
    5      Li     -2.8734546164     0.1493988618     0.9561197466
    6      C       2.1594902493    -0.0041984504    -0.0512504629
    7      C       2.4888917396     1.2844164288    -0.1631363372
    8      H       2.0568182058    -0.4640473126     0.9461025463
    9      H       2.6676957452    -0.7314880885    -0.7016276494
   10      H       3.4076659459     1.5113473957    -0.7417087592
   11      H       2.4868349815     1.8952006290     0.7557823574
 ----------------------------------------------------------------
 Nuclear Repulsion Energy =         233.62414042 hartrees
 There are       25 alpha and       25 beta electrons
 Discretize the solute cavity surface with Lebedev spheres
	Using 110 Lebedev grid points for each H atom
	Using 194 Lebedev grid points for other atoms
	Atomic van der Waals radii will be scaled by 1.20
 Remove points where switching function is < 1.0e-08
 Keep 897 surface tesserae and discard 901 interior tesserae
 Molecular Surface Area = 170.456 Angst**2

                       Distance Matrix (Angstroms)
             O (  1)   C (  2)   O (  3)   O (  4)   Li(  5)   C (  6)
   C (  2)  1.321000
   O (  3)  2.283315  1.247683
   O (  4)  2.244838  1.315139  2.194197
   Li(  5)  1.929343  2.187798  3.430174  1.816030
   C (  6)  3.394571  3.204659  2.409481  4.422120  5.135068
   C (  7)  3.998172  3.894968  3.262657  5.012028  5.594261  1.334748
   H (  8)  3.071293  3.240066  2.716549  4.546951  4.968300  1.103048
   H (  9)  4.171914  3.756496  2.702529  4.883808  5.850507  1.100097
   H ( 10)  5.083774  4.870988  4.086741  5.932502  6.647556  2.081239
   H ( 11)  4.045404  4.272992  3.922919  5.409066  5.640981  2.089539
             C (  7)   H (  8)   H (  9)   H ( 10)
   H (  8)  2.115236
   H (  9)  2.094234  1.777558
   H ( 10)  1.109229  2.928426  2.362091
   H ( 11)  1.103392  2.405657  3.009360  1.799376
 
 Applying Cartesian multipole field
    Component          Value
    ---------          -----
     (2,0,0)        1.00000E-11
     (0,2,0)        2.00000E-11
     (0,0,2)       -3.00000E-11
 Nucleus-field energy     =     0.0000000050 hartrees
 Requested basis set is def2-TZVPPD
 There are 119 shells and 321 basis functions
 A cutoff of  1.0D-14 yielded   6561 shell pairs
 There are     48279 function pairs (     61362 Cartesian)
 Smallest overlap matrix eigenvalue = 1.00E-05
 Guess from superposition of atomic densities
 Warning:  Energy on first SCF cycle will be non-variational
 SAD guess density has 48.090450 electrons

 -----------------------------------------------------------------------
  General SCF calculation program by
  Eric Jon Sundstrom, Paul Horn, Yuezhi Mao, Dmitri Zuev, Alec White,
  David Stuck, Shaama M.S., Shane Yost, Joonho Lee, David Small,
  Daniel Levine, Susi Lehtola, Hugh Burton, Evgeny Epifanovsky
 -----------------------------------------------------------------------
 Exchange:     0.1670 Hartree-Fock + 1.0000 wB97X-V + LR-HF
 Correlation:  1.0000 wB97X-V
 Using SG-3 standard quadrature grid
 Nonlocal Correlation:  VV10 with C = 0.0100 and b = 6.00 and scale = 1.00000
 Grid used for NLC:  SG-1 standard quadrature
 
 Citation of the SMD model:
 Marenich, A.V.; Cramer, C.J.; Truhlar, D.G.
 J. Phys. Chem. B 2009, 113, 6378-6396.
 iSolventCode=           0
 Solvent: other                                                           
 
 vradii
            1           2           3           4           5           6
    1   2.2940000   1.8500000   2.2940000   2.2940000   2.1476001   1.8500000
            7           8           9          10          11
    1   1.8500000   1.2000000   1.2000000   1.2000000   1.2000000
 using 32 threads for integral computing
 -------------------------------------------------------
 OpenMP Integral computing Module                
 Release: version 1.0, May 2013, Q-Chem Inc. Pittsburgh 
 -------------------------------------------------------
 using 32 threads for integral computing
 -------------------------------------------------------
 OpenMP Integral computing Module                
 Release: version 1.0, May 2013, Q-Chem Inc. Pittsburgh 
 -------------------------------------------------------
 -------------------------------------------------------
 OpenMP BLAS3 based DFT computing Module                
 Release: version 1.0, May 2013, Q-Chem Inc. Pittsburgh 
 -------------------------------------------------------
 -------------------------------------------------------
 OpenMP BLAS3 based DFT computing Module                
 Release: version 1.0, May 2013, Q-Chem Inc. Pittsburgh 
 -------------------------------------------------------
 -------------------------------------------------------
 OpenMP BLAS3 based DFT computing Module                
 Release: version 1.0, May 2013, Q-Chem Inc. Pittsburgh 
 -------------------------------------------------------
 A restricted SCF calculation will be
 performed using DIIS, GDM
 SCF converges when RMS gradient is below 1.0e-08
 ---------------------------------------
  Cycle       Energy         DIIS error
 ---------------------------------------
    1    -348.3795475557      2.44e-02  
    2    -349.0526105255      1.09e-02  
    3    -349.6712677444      7.22e-03  Done DIIS. Switching to GDM
 ---------------------------------------
  Cycle       Energy        RMS Gradient
 ---------------------------------------
    1    -349.6712677444      2.48e-01   Descent step
    2    -350.0650265382      4.58e-02   Normal BFGS step
    3    -350.0923338559      1.18e-02   Normal BFGS step
    4    -350.0927402154      1.49e-02   Normal BFGS step
    5    -350.0936605642      1.19e-03   Normal BFGS step
    6    -350.0936843147      5.93e-04   Normal BFGS step
    7    -350.0936951683      1.70e-04   Normal BFGS step
    8    -350.0936958110      1.02e-04   Normal BFGS step
    9    -350.0936958648      1.07e-04   Normal BFGS step
   10    -350.0936959159      1.09e-05   Normal BFGS step
   11    -350.0936959175      1.27e-05   Normal BFGS step
   12    -350.0936959185      3.11e-06   Normal BFGS step
   13    -350.0936959186      6.12e-07   Normal BFGS step
   14    -350.0936959186      2.67e-07   Normal BFGS step
   15    -350.0936959186      3.71e-08   Normal BFGS step
   16    -350.0936959186      1.48e-08   Normal BFGS step
   17    -350.0936959186      3.79e-09  Convergence criterion met
 ---------------------------------------
 SCF time:   CPU 2069.65s  wall 117.00s 
(3)  G-ENP(liq) elect-nuc-pol free energy of system     -350.093695919 a.u.
(4)  G-CDS(liq) cavity-dispersion-solvent structure 
     free energy                                               -1.9537 kcal/mol
(6)  G-S(liq) free energy of system                     -350.096809330 a.u.
 SCF   energy in the final basis set =     -350.0936959186
 Total energy in the final basis set =     -350.0968093298
 
 --------------------------------------------------------------
 
                    Orbital Energies (a.u.)
 --------------------------------------------------------------
 
 Alpha MOs
 -- Occupied --
-19.1025 -19.0949 -19.0917 -10.3245 -10.2546 -10.2235  -2.0386  -1.1249
 -1.0076  -0.9879  -0.8631  -0.6624  -0.5520  -0.5370  -0.4986  -0.4899
 -0.4825  -0.4794  -0.4067  -0.3581  -0.3438  -0.3127  -0.3110  -0.2991
 -0.2659
 -- Virtual --
  0.0407   0.0564   0.0569   0.0644   0.0950   0.1012   0.1089   0.1220
  0.1289   0.1440   0.1514   0.1531   0.1626   0.1631   0.1702   0.1757
  0.1812   0.1913   0.2122   0.2157   0.2174   0.2331   0.2440   0.2560
  0.2625   0.2639   0.2757   0.2912   0.3031   0.3123   0.3203   0.3328
[...]
   O (  4)  2.276822  1.317502  2.184549
   Li(  5)  2.525425  2.082401  2.781330  1.809735
   C (  6)  8.149080  8.215875  8.775237  8.155282  9.750501
   C (  7)  9.027092  9.043087  9.671430  8.814735 10.410395  1.343690
   H (  8)  8.282956  8.496336  9.054685  8.587032 10.100066  1.124507
   H (  9)  7.384679  7.345240  7.827337  7.290347  8.943374  1.095074
   H ( 10) 10.064640 10.036729 10.606217  9.799381 11.431768  2.132974
   H ( 11)  8.812688  8.818302  9.548065  8.459685 10.002939  2.130369
             C (  7)   H (  8)   H (  9)   H ( 10)
   H (  8)  2.167739
   H (  9)  2.137197  1.874433
   H ( 10)  1.104353  2.778391  2.910241
   H ( 11)  1.107146  2.965876  2.681787  1.896268
 
 Applying Cartesian multipole field
    Component          Value
    ---------          -----
     (2,0,0)        1.00000E-11
     (0,2,0)        2.00000E-11
     (0,0,2)       -3.00000E-11
 Nucleus-field energy     =     0.0000000343 hartrees
 Requested basis set is def2-TZVPPD
 There are 119 shells and 321 basis functions
 A cutoff of  1.0D-14 yielded   5113 shell pairs
 There are     36245 function pairs (     45586 Cartesian)
 Smallest overlap matrix eigenvalue = 1.81E-05
 Guess from superposition of atomic densities
 Warning:  Energy on first SCF cycle will be non-variational
 SAD guess density has 48.090450 electrons

 -----------------------------------------------------------------------
  General SCF calculation program by
  Eric Jon Sundstrom, Paul Horn, Yuezhi Mao, Dmitri Zuev, Alec White,
  David Stuck, Shaama M.S., Shane Yost, Joonho Lee, David Small,
  Daniel Levine, Susi Lehtola, Hugh Burton, Evgeny Epifanovsky
 -----------------------------------------------------------------------
 Exchange:     0.1670 Hartree-Fock + 1.0000 wB97X-V + LR-HF
 Correlation:  1.0000 wB97X-V
 Using SG-3 standard quadrature grid
 Nonlocal Correlation:  VV10 with C = 0.0100 and b = 6.00 and scale = 1.00000
 Grid used for NLC:  SG-1 standard quadrature
 
 Citation of the SMD model:
 Marenich, A.V.; Cramer, C.J.; Truhlar, D.G.
 J. Phys. Chem. B 2009, 113, 6378-6396.
 iSolventCode=           0
 Solvent: other                                                           
 
 vradii
            1           2           3           4           5           6
    1   2.2940000   1.8500000   2.2940000   2.2940000   2.1476001   1.8500000
            7           8           9          10          11
    1   1.8500000   1.2000000   1.2000000   1.2000000   1.2000000
 using 32 threads for integral computing
 -------------------------------------------------------
 OpenMP Integral computing Module                
 Release: version 1.0, May 2013, Q-Chem Inc. Pittsburgh 
 -------------------------------------------------------
 using 32 threads for integral computing
 -------------------------------------------------------
 OpenMP Integral computing Module                
 Release: version 1.0, May 2013, Q-Chem Inc. Pittsburgh 
 -------------------------------------------------------
 -------------------------------------------------------
 OpenMP BLAS3 based DFT computing Module                
 Release: version 1.0, May 2013, Q-Chem Inc. Pittsburgh 
 -------------------------------------------------------
 -------------------------------------------------------
 OpenMP BLAS3 based DFT computing Module                
 Release: version 1.0, May 2013, Q-Chem Inc. Pittsburgh 
 -------------------------------------------------------
 -------------------------------------------------------
 OpenMP BLAS3 based DFT computing Module                
 Release: version 1.0, May 2013, Q-Chem Inc. Pittsburgh 
 -------------------------------------------------------
 A restricted SCF calculation will be
 performed using DIIS, GDM
 SCF converges when RMS gradient is below 1.0e-08
 ---------------------------------------
  Cycle       Energy         DIIS error
 ---------------------------------------
    1    -348.1450896560      2.40e-02  
    2    -347.3992677333      1.24e-02  
    3    -338.8955596770      2.33e-02  
    4    -349.9637995362      1.71e-03  Done DIIS. Switching to GDM
 ---------------------------------------
  Cycle       Energy        RMS Gradient
 ---------------------------------------
    1    -349.9637995362      5.74e-02   Normal BFGS step
    2    -349.9702386728      4.89e-02   Normal BFGS step
    3    -350.0047056046      1.11e-02   Normal BFGS step
    4    -350.0050798618      6.52e-03   Normal BFGS step
    5    -350.0056323391      1.67e-03   Normal BFGS step
    6    -350.0056438116      7.46e-04   Normal BFGS step
    7    -350.0056541461      5.97e-04   Normal BFGS step
    8    -350.0056548912      2.57e-04   Normal BFGS step
    9    -350.0056554406      8.83e-05   Normal BFGS step
   10    -350.0056555214      6.52e-05   Normal BFGS step
   11    -350.0056555352      2.31e-05   Normal BFGS step
   12    -350.0056555382      2.59e-06   Normal BFGS step
   13    -350.0056555385      2.52e-06   Normal BFGS step
   14    -350.0056555385      4.86e-07   Normal BFGS step
   15    -350.0056555385      1.97e-07   Normal BFGS step
   16    -350.0056555385      7.18e-08   Normal BFGS step
   17    -350.0056555385      6.08e-08   Normal BFGS step
   18    -350.0056555385      8.05e-09  Convergence criterion met
 ---------------------------------------
 SCF time:   CPU 1613.27s  wall 71.00s 
(3)  G-ENP(liq) elect-nuc-pol free energy of system     -350.005655539 a.u.
(4)  G-CDS(liq) cavity-dispersion-solvent structure 
     free energy                                               -2.6933 kcal/mol
(6)  G-S(liq) free energy of system                     -350.009947579 a.u.
 SCF   energy in the final basis set =     -350.0056555385
 Total energy in the final basis set =     -350.0099475795
 
 --------------------------------------------------------------
 
                    Orbital Energies (a.u.)
 --------------------------------------------------------------
 
 Alpha MOs
 -- Occupied --
-19.0951 -19.0944 -19.0779 -10.3168 -10.2700 -10.2677  -2.0863  -1.1178
 -0.9972  -0.9790  -0.8849  -0.6883  -0.5466  -0.5449  -0.5190  -0.5065
 -0.4854  -0.4760  -0.4677  -0.3286  -0.3209  -0.3127  -0.2948  -0.2885
 -0.2495
 -- Virtual --
  0.0208   0.0374   0.0568   0.0570   0.0604   0.0861   0.1020   0.1112
  0.1241   0.1290   0.1424   0.1486   0.1511   0.1584   0.1635   0.1685
  0.1706   0.1781   0.1809   0.1964   0.1984   0.2016   0.2048   0.2130
  0.2164   0.2289   0.2479   0.2523   0.2687   0.2785   0.2814   0.3012
  0.3068   0.3098   0.3117   0.3214   0.3248   0.3320   0.3434   0.3549
  0.3712   0.3751   0.3879   0.3899   0.3963   0.4027   0.4197   0.4229
  0.4267   0.4369   0.4412   0.4431   0.4555   0.4607   0.4700   0.4770
  0.4783   0.4894   0.4908   0.5066   0.5164   0.5216   0.5314   0.5421
  0.5523   0.5667   0.5724   0.5825   0.5882   0.5891   0.5945   0.5990
  0.6031   0.6175   0.6232   0.6260   0.6357   0.6432   0.6463   0.6480
  0.6767   0.6896   0.7020   0.7209   0.7302   0.7461   0.7716   0.7738
  0.7824   0.7844   0.7918   0.8000   0.8230   0.8328   0.8380   0.8437
  0.8666   0.8984   0.9257   0.9495   0.9528   1.0150   1.0278   1.0442
  1.0467   1.0604   1.0677   1.0735   1.0800   1.1098   1.1253   1.1254
  1.1290   1.1500   1.1684   1.1824   1.1895   1.2243   1.2408   1.2825
  1.2854   1.2964   1.3231   1.3246   1.3481   1.4026   1.4249   1.4660
  1.4757   1.5110   1.5332   1.5667   1.5726   1.6043   1.6293   1.6595
  1.6690   1.7093   1.8443   1.8650   1.8744   1.8977   1.9095   1.9276
  1.9361   1.9390   1.9525   1.9868   1.9919   2.0018   2.0137   2.0582
  2.1436   2.2040   2.2377   2.2903   2.3100   2.3377   2.4216   2.4501
  2.4583   2.4925   2.5219   2.5236   2.6753   2.6820   2.7224   2.7539
  2.8125   2.8320   2.8329   2.8703   2.9390   2.9662   3.0089   3.0330
  3.0475   3.0575   3.0715   3.1032   3.1195   3.1225   3.1330   3.1365
  3.1637   3.1892   3.2659   3.2970   3.3099   3.3528   3.3781   3.4046
  3.4103   3.4125   3.4239   3.4481   3.4525   3.5088   3.5585   3.5632
  3.5773   3.5806   3.5989   3.6302   3.6585   3.6661   3.6862   3.6874
  3.7111   3.7473   3.7540   3.7958   3.8186   3.8868   3.9155   3.9486
  4.0094   4.0482   4.0568   4.0742   4.1202   4.1851   4.1959   4.2282
  4.2314   4.2574   4.3357   4.4065   4.5713   4.5885   4.6106   4.6813
  4.7368   4.8270   4.8696   4.9014   4.9070   4.9783   5.0336   5.0831
  5.0978   5.2063   5.3330   5.3557   5.3639   5.3751   5.3914   5.4058
  5.4198   5.4215   5.4340   5.4898   5.5056   5.5722   5.5770   5.5983
  5.6306   5.6676   5.7113   5.7647   5.8644   5.9188   5.9656   6.0068
  6.0434   6.1042   6.1933   6.2784   6.3435   6.3835   6.4305   6.5093
  6.6055   6.6354   6.7267   6.7349   6.7532   6.7696   6.7974   6.8458
  7.0166   7.0237   7.0630   7.3155   7.3494   7.3931   7.4327   7.4781
  7.6054  14.8881  23.2274  23.6507  23.8159  44.1106  44.2683  44.3010
 --------------------------------------------------------------
 
          Ground-State Mulliken Net Atomic Charges

     Atom                 Charge (a.u.)
  ----------------------------------------
      1 O                    -0.673302
      2 C                     0.305452
      3 O                    -0.689435
      4 O                    -0.823657
      5 Li                    0.880890
      6 C                    -0.240482
      7 C                    -0.272538
      8 H                     0.125497
      9 H                     0.128599
     10 H                     0.135389
     11 H                     0.123587
  ----------------------------------------
  Sum of atomic charges =    -1.000000

  Building new vdw surfaces
         Merz-Kollman RESP Net Atomic Charges

     Atom                 Charge (a.u.)
  ----------------------------------------
      1 O                    -1.040479
      2 C                     1.277637
      3 O                    -1.019591
      4 O                    -1.040479
      5 Li                    0.821170
      6 C                    -0.270073
      7 C                    -0.367586
      8 H                     0.149499
      9 H                     0.149499
     10 H                     0.170201
     11 H                     0.170201
  ----------------------------------------
  Sum of atomic charges =    -1.000000

  Related Dipole Moment =    15.2226 (X 11.5623 Y  9.7522 Z  1.7132)

 -----------------------------------------------------------------
                    Cartesian Multipole Moments
 -----------------------------------------------------------------
    Charge (ESU x 10^10)
                -4.8032
    Dipole Moment (Debye)
         X      11.3560      Y       9.6701      Z       1.7984
       Tot      15.0235
    Quadrupole Moments (Debye-Ang)
        XX     -50.3642     XY     -35.8859     YY     -63.4773
        XZ     -15.9154     YZ       0.6263     ZZ     -49.6834
    Octopole Moments (Debye-Ang^2)
       XXX     -60.8634    XXY     150.4053    XYY     127.8061
       YYY     102.0222    XXZ      86.7483    XYZ      -2.4356
       YYZ      -1.6511    XZZ      60.4708    YZZ      31.4540
       ZZZ     -14.1038
    Hexadecapole Moments (Debye-Ang^3)
      XXXX   -2582.2449   XXXY   -1049.8124   XXYY   -1097.6859
      XYYY    -760.6013   YYYY    -647.7180   XXXZ    -539.5601
      XXYZ     -48.7968   XYYZ       6.6475   YYYZ      19.0688
      XXZZ    -789.4185   XYZZ    -257.3253   YYZZ    -148.5822
      XZZZ      66.3817   YZZZ      31.1361   ZZZZ    -180.5019
 -----------------------------------------------------------------
 Calculating analytic gradient of the SCF energy
 Gradient of CDS energy
            1           2           3           4           5           6
    1  -0.0005009   0.0020749  -0.0007771  -0.0009551   0.0001582  -0.0006739
    2   0.0000027  -0.0005353  -0.0001989   0.0006071   0.0001244  -0.0015505
    3   0.0008161  -0.0001746  -0.0005532  -0.0000182  -0.0000701   0.0000614
            7           8           9          10          11
    1   0.0006212  -0.0000708   0.0002026  -0.0002053   0.0001263
    2   0.0015653   0.0001370   0.0000728  -0.0000426  -0.0001821
    3  -0.0001181  -0.0001245   0.0001387   0.0001121  -0.0000696
 Gradient of SCF Energy
            1           2           3           4           5           6
    1   0.0122945  -0.0162507   0.0079798   0.0127694  -0.0168248   0.0011969
    2  -0.0076908  -0.0138215   0.0194475  -0.0015927   0.0036776   0.0326842
    3  -0.0199519   0.0256151   0.0077886  -0.0175373   0.0041126  -0.0162134
            7           8           9          10          11
    1  -0.0088840  -0.0220530   0.0372610  -0.0234151   0.0159259
    2  -0.0266388   0.0102702  -0.0056946  -0.0011352  -0.0095058
    3   0.0063375   0.0289775  -0.0190319  -0.0326715   0.0325747
 Max gradient component =       3.726E-02
 RMS gradient           =       1.859E-02
 Computing fast CPCM-SWIG gradient
 Updating gradient with PCM contributions...
 -- total gradient after adding PCM contribution --
---------------------------------------------------
  Atom         X              Y              Z     
---------------------------------------------------
   1       0.003269      -0.012246       0.001537
   2       0.008112       0.018324       0.027257
   3      -0.006186       0.011672      -0.007390
   4       0.000616      -0.015515      -0.020927
   5      -0.005826      -0.002236      -0.000474
   6       0.004465       0.033732      -0.014298
   7      -0.004074      -0.025544       0.007285
   8      -0.019981       0.002221       0.042011
   9       0.026236      -0.011604      -0.032562
  10      -0.015470       0.000434      -0.043021
  11       0.008837       0.000763       0.040583
---------------------------------------------------
 Number of fixed atoms: 0
 Gradient time:  CPU 158.94 s  wall 8.61 s
 E1 = -350.0104701, E2 = -350.0099476, Emax = -350.0102087
 Iteration 5, Curvature = -0.0074299
 Curvature, final (in Hartree/Bohr^2) = -0.0020806
 ----------------------------------------------------------------
             Standard Nuclear Orientation (Angstroms)
    I     Atom           X                Y                Z
 ----------------------------------------------------------------
    1      O      -3.3417992784    -1.6052282428     1.3435001198
    2      C      -3.6250832090    -1.2342143198     0.1510530626
    3      O      -3.9606550092    -2.0572522327    -0.7754831729
    4      O      -3.7398860507     0.0344224735    -0.1853823491
    5      Li     -5.2992585588    -0.1341304651     0.7179988544
    6      C       4.4000772882     0.5229423583    -0.0572372669
    7      C       4.9030338600     1.7667445486    -0.1274732340
    8      H       4.8024554445    -0.2547247382     0.6478442525
    9      H       3.5332189461     0.2118910769    -0.6490921747
   10      H       5.8568868799     1.9642533652    -0.6473185400
   11      H       4.3012139139     2.6346542874     0.2039712096
 ----------------------------------------------------------------
 Nuclear Repulsion Energy =         190.09781404 hartrees
 There are       25 alpha and       25 beta electrons
 Requested basis set is def2-TZVPPD
 There are 119 shells and 321 basis functions
 Geometry Optimization Parameters
   NAtoms,    NIC,     NZ,  NCons,   NDum,   NFix, NCnnct, MaxDiis
       11     142       0       0       0       0       0       0


** GEOMETRY OPTIMIZATION IN DELOCALIZED INTERNAL COORDINATES **
   Searching for a Minimum

   Optimization Cycle:   1

                       Coordinates (Angstroms)
     ATOM                X               Y               Z
      1  O        -3.3417992784   -1.6052282428    1.3435001198
      2  C        -3.6250832090   -1.2342143198    0.1510530626
      3  O        -3.9606550092   -2.0572522327   -0.7754831729
      4  O        -3.7398860507    0.0344224735   -0.1853823491
      5  Li       -5.2992585588   -0.1341304651    0.7179988544
      6  C         4.4000772882    0.5229423583   -0.0572372669
      7  C         4.9030338600    1.7667445486   -0.1274732340
      8  H         4.8024554445   -0.2547247382    0.6478442525
      9  H         3.5332189461    0.2118910769   -0.6490921747
     10  H         5.8568868799    1.9642533652   -0.6473185400
     11  H         4.3012139139    2.6346542874    0.2039712096
   Point Group: c1    Number of degrees of freedom:    27


   Energy is   -350.009947579


 Attempting to generate delocalized internal coordinates
 Initial Hessian constructed with Jon Baker's OPTIMIZE code

 27 Hessian modes will be used to form the next step
  Hessian Eigenvalues:
     0.000774    0.002000    0.002771    0.012238    0.019858    0.027880
     0.029883    0.030630    0.039601    0.045478    0.053619    0.060722
     0.069399    0.112783    0.134763    0.159828    0.160000    0.160000
     0.160000    0.311422    0.329265    0.332304    0.342689    0.342776
     0.485884    0.564319    0.606438

 Minimum search - taking simple RFO step
 Searching for Lamda that Minimizes Along All modes
 Value Taken    Lamda =  -0.06649138
 Calculated Step too Large.  Step scaled by  0.368912
 Step Taken.  Stepsize is  0.300000

                             Maximum     Tolerance    Cnvgd?
         Gradient           0.048601      0.000300      NO
         Displacement       0.142727      0.001200      NO
         Energy change     *********      0.000001      NO


 New Cartesian Coordinates Obtained by Inverse Iteration

 Displacement from previous Coordinates is:  0.367183
 ----------------------------------------------------------------
             Standard Nuclear Orientation (Angstroms)
    I     Atom           X                Y                Z
 ----------------------------------------------------------------
    1      O      -3.3427127788    -1.6140689288     1.3378578421
    2      C      -3.6286387666    -1.2360492053     0.1491008873
    3      O      -3.9646465723    -2.0559697982    -0.7801727267
    4      O      -3.7414331381     0.0416510751    -0.1647033187
    5      Li     -5.2966162512    -0.1353124952     0.7364489753
    6      C       4.3976140794     0.5183429261    -0.0665995089
    7      C       4.9041564410     1.7701580781    -0.1271589394
    8      H       4.7958359261    -0.2629387551     0.6221718376
    9      H       3.5288288660     0.2137072683    -0.6588424668
   10      H       5.9150669721     1.9687453309    -0.5147000229
   11      H       4.2627494491     2.6410926155     0.0889782025
 ----------------------------------------------------------------
 Nuclear Repulsion Energy =         189.97022163 hartrees
 There are       25 alpha and       25 beta electrons



























 Eigenvalues after right structure
 -0.0209196 -0.0000000 -0.0000000 -0.0000000 0.0000000 0.0000000 0.0000462 0.0008088 0.0034502 0.0097127 0.0355890 0.0419853 0.0571755 0.0624170 0.0911929 0.1047275 0.1123893 0.1748784 0.1913841 0.1948650 0.2299350 0.2676737 0.2851634 0.3998409 0.4190427 0.6095109 0.7164065 0.7516845 0.8847063 0.9549057 1.5408431 1.8343701 2.0568110
Archival summary:
1\1\nid01148\JobtypUnspecified\ProcedureUnspecified\BasisUnspecified\33i14(1-,1)\ewcss\MonSep1621:23:332019MonSep1621:23:332019\0\\#,JobtypUnspecified,ProcedureUnspecified,BasisUnspecified,\\-1,1\C\O,1,1.27976\O,1,1.28403,2,122.827\O,1,1.3205,2,121.711,3,172.331,0\Li,4,1.8061,1,81.9623,2,-74.3996,0\H,4,7.28907,1,87.3492,2,81.2966,0\C,6,1.09469,4,139.595,1,-99.6129,0\H,7,1.11507,6,115.001,4,87.6555,0\C,7,1.35177,6,122.064,4,-89.4169,0\H,9,1.10071,7,121.803,6,-115.393,0\H,9,1.10302,7,120.3,6,56.5241,0\\\@

 Total job time:  6645.97s(wall), 116366.26s(cpu) 
 Mon Sep 16 21:23:33 2019

        *************************************************************
        *                                                           *
        *  Thank you very much for using Q-Chem.  Have a nice day.  *
        *                                                           *
        *************************************************************


