11
image # 1 Energy = -350.10040
O -0.63348  0.07777   1.17838   
C -0.66067  -0.26053  -0.04658  
O 0.44506   -0.51070  -0.72823  
O -1.76574  -0.39234  -0.66620  
Li -2.49505  0.13810   0.97053   
C 1.76952   -0.15192  -0.08208  
C 2.14769   1.27698   -0.17462  
H 1.67526   -0.54490  0.93376   
H 2.43137   -0.81193  -0.65130  
H 3.08467   1.42948   -0.72348  
H 2.20431   1.77427   0.80102   
11
image # 2 Energy = -350.09681
O -0.98350  -0.13011  1.22502   
C -1.02020  -0.40312  -0.06694  
O -0.03360  -0.69277  -0.77363  
O -2.20494  -0.40761  -0.63787  
Li -2.87345  0.14940   0.95612   
C 2.15949   -0.00420  -0.05125  
C 2.48889   1.28442   -0.16314  
H 2.05682   -0.46405  0.94610   
H 2.66770   -0.73149  -0.70163  
H 3.40767   1.51135   -0.74171  
H 2.48683   1.89520   0.75578   
11
image # 3 Energy = -350.10690
O -1.33237  -0.34731  1.26158   
C -1.41457  -0.53579  -0.04905  
O -0.48137  -0.88123  -0.79379  
O -2.60882  -0.41647  -0.60866  
Li -3.23721  0.17084   0.94567   
C 2.51016   0.07790   -0.03734  
C 2.84760   1.35846   -0.15989  
H 2.41316   -0.38493  0.94324   
H 2.89531   -0.64684  -0.74579  
H 3.74020   1.58766   -0.75033  
H 2.76986   2.00907   0.70664   
11
image # 4 Energy = -350.10774
O -1.72003  -0.58563  1.28506   
C -1.85092  -0.67857  -0.00967  
O -0.95385  -1.07806  -0.79923  
O -3.01145  -0.41600  -0.57777  
Li -3.61087  0.19863   0.94026   
C 2.87860   0.17463   -0.02930  
C 3.23582   1.42703   -0.15769  
H 2.78230   -0.30940  0.93973   
H 3.12365   -0.55576  -0.80169  
H 4.10881   1.66998   -0.76375  
H 3.07467   2.13535   0.65747   
11
image # 5 Energy = -350.11315
O -2.14179  -0.80900  1.29405   
C -2.27311  -0.83976  -0.00466  
O -1.42316  -1.27996  -0.77713  
O -3.39592  -0.38876  -0.54143  
Li -3.95496  0.21940   0.96298   
C 3.27307   0.23547   -0.02109  
C 3.65737   1.50797   -0.12791  
H 3.11037   -0.24039  0.93970   
H 3.33118   -0.45505  -0.86388  
H 4.46040   1.76796   -0.81599  
H 3.38125   2.26102   0.61147   
11
image # 6 Energy = -350.11673
O -2.56965  -1.01773  1.31368   
C -2.71089  -0.97711  0.01749   
O -1.90557  -1.52869  -0.78048  
O -3.72490  -0.32059  -0.52030  
Li -4.28672  0.21157   1.00910   
C 3.65185   0.30956   -0.01836  
C 4.06256   1.57592   -0.10971  
H 3.46048   -0.18080  0.92693   
H 3.51173   -0.32886  -0.90208  
H 4.80524   1.86207   -0.85228  
H 3.69576   2.37001   0.55588   
11
image # 7 Energy = -350.10862
O -2.99815  -1.19237  1.31684   
C -3.13106  -1.10517  0.02689   
O -2.48418  -1.83096  -0.77223  
O -3.90624  -0.16987  -0.49288  
Li -4.63057  0.10861   1.05856   
C 4.01179   0.38105   -0.01399  
C 4.45674   1.64246   -0.10355  
H 3.81291   -0.12651  0.89948   
H 3.67906   -0.17175  -0.90581  
H 5.12411   1.95471   -0.88514  
H 4.02175   2.45359   0.50292   
11
image # 8 Energy = -350.07752
O -3.32785  -1.35716  1.32585   
C -3.45122  -1.17992  0.05469   
O -3.22454  -2.07818  -0.77846  
O -3.87302  -0.00705  -0.38620  
Li -4.98115  -0.07222  0.98983   
C 4.29622   0.45712   -0.03058  
C 4.75876   1.70690   -0.10770  
H 4.19923   -0.11535  0.84983   
H 3.77076   -0.00248  -0.86342  
H 5.42911   2.01304   -0.88693  
H 4.30379   2.52524   0.44827   
11
image # 9 Energy = -350.01021
O -3.34180  -1.60523  1.34350   
C -3.62508  -1.23421  0.15105   
O -3.96066  -2.05725  -0.77548  
O -3.73989  0.03442   -0.18538  
Li -5.29926  -0.13413  0.71800   
C 4.40008   0.52294   -0.05724  
C 4.90303   1.76674   -0.12747  
H 4.80246   -0.25472  0.64784   
H 3.53322   0.21189   -0.64909  
H 5.85689   1.96425   -0.64732  
H 4.30121   2.63465   0.20397   
11
image # 10 Energy = -350.08958
O -3.51831  -1.85527  1.27167   
C -3.86371  -1.31174  0.21083   
O -4.61739  -1.91696  -0.63628  
O -3.73763  -0.02875  -0.02125  
Li -5.49573  -0.17831  0.50097   
C 4.59997   0.59198   -0.02860  
C 5.11817   1.81119   -0.12962  
H 5.13606   -0.25966  0.31797   
H 3.60504   0.36838   -0.32305  
H 6.10321   1.98105   -0.50842  
H 4.50558   2.69218   0.03665   
11
image # 11 Energy = -350.11794
O -3.82775  -2.10252  1.22625   
C -4.25235  -1.45128  0.26321   
O -5.24068  -1.86770  -0.48365  
O -3.92289  -0.20191  0.02229   
Li -5.72565  -0.09886  0.38983   
C 4.88496   0.67808   -0.01157  
C 5.40809   1.88706   -0.13958  
H 5.47997   -0.20323  0.13333   
H 3.82099   0.50439   -0.13467  
H 6.43479   2.02174   -0.48619  
H 4.81093   2.78138   -0.03033  
11
image # 12 Energy = -350.12726
O -4.20894  -2.32122  1.19881   
C -4.69455  -1.59466  0.30567   
O -5.79689  -1.87612  -0.33643  
O -4.23120  -0.39814  0.03280   
Li -5.98667  -0.02760  0.31265   
C 5.20174   0.77378   -0.01888  
C 5.74922   1.96731   -0.17048  
H 5.80560   -0.11995  0.05718   
H 4.12228   0.62500   -0.04210  
H 6.77908   2.08852   -0.51895  
H 5.17796   2.87826   -0.03619  
11
image # 13 Energy = -350.12995
O -4.60678  -2.53177  1.16292   
C -5.13217  -1.72780  0.35332   
O -6.30816  -1.88200  -0.19716  
O -4.57624  -0.57670  0.06753   
Li -6.27977  -0.00991  0.22179   
C 5.52950   0.86895   -0.03635  
C 6.09962   2.04941   -0.20298  
H 6.12841   -0.04185  0.00236   
H 4.44500   0.74436   0.02884   
H 7.13212   2.16017   -0.54823  
H 5.54601   2.97724   -0.04731  
11
image # 14 Energy = -350.13293
O -5.02206  -2.74475  1.13565   
C -5.55465  -1.85835  0.39652   
O -6.78972  -1.91135  -0.07302  
O -4.96536  -0.73323  0.11102   
Li -6.58436  -0.00653  0.13134   
C 5.86780   0.95915   -0.06393  
C 6.44930   2.14383   -0.24768  
H 6.44287   0.04058   -0.01435  
H 4.79245   0.85330   0.06242   
H 7.47914   2.23468   -0.58455  
H 5.92908   3.07559   -0.04115  
11
image # 15 Energy = -350.13790
O -5.45220  -2.94001  1.07544   
C -5.98785  -1.98743  0.44919   
O -7.23951  -1.93925  0.05946   
O -5.32063  -0.85427  0.17894   
Li -6.91322  -0.07477  0.02900   
C 6.19666   1.04348   -0.07839  
C 6.80231   2.23967   -0.27556  
H 6.75708   0.12359   -0.06440  
H 5.14106   0.96905   0.10695   
H 7.82952   2.30365   -0.58735  
H 6.28533   3.16819   -0.08048  
11
image # 16 Energy = -350.14346
O -5.92062  -3.11904  1.00101   
C -6.42428  -2.08880  0.50052   
O -7.69321  -1.98682  0.18660   
O -5.69934  -0.99365  0.26563   
Li -7.27187  -0.18461  -0.06606  
C 6.55761   1.16055   -0.09212  
C 7.15764   2.31139   -0.29035  
H 7.09242   0.20758   -0.12204  
H 5.49716   1.08919   0.14875   
H 8.20615   2.37625   -0.58276  
H 6.64699   3.26729   -0.13717  
11
image # 17 Energy = -350.14549
O -6.38678  -3.28807  0.94044   
C -6.85387  -2.19323  0.54284   
O -8.13370  -2.02204  0.28611   
O -6.09987  -1.13081  0.35213   
Li -7.64934  -0.32465  -0.13824  
C 6.91206   1.25318   -0.09069  
C 7.53016   2.40786   -0.29985  
H 7.43368   0.30447   -0.18396  
H 5.86090   1.21215   0.18164   
H 8.58127   2.44889   -0.57235  
H 7.00843   3.35655   -0.20689  
